
     Program PWSCF v.7.3.1 starts on 17Jun2025 at 11:47: 3 

     This program is part of the open-source Quantum ESPRESSO suite
     for quantum simulation of materials; please cite
         "P. Giannozzi et al., J. Phys.:Condens. Matter 21 395502 (2009);
         "P. Giannozzi et al., J. Phys.:Condens. Matter 29 465901 (2017);
         "P. Giannozzi et al., J. Chem. Phys. 152 154105 (2020);
          URL http://www.quantum-espresso.org", 
     in publications or presentations arising from this work. More details at
     http://www.quantum-espresso.org/quote

     Parallel version (MPI & OpenMP), running on      96 processor cores
     Number of MPI processes:                 1
     Threads/MPI process:                    96

     MPI processes distributed on     1 nodes
     122023 MiB available memory on the printing compute node when the environment starts
 
     Waiting for input...
     Reading input from standard input
Warning: card &IONS ignored
Warning: card     ION_DYNAMICS = 'BFGS' ignored
Warning: card /&END ignored

     Current dimensions of program PWSCF are:
     Max number of different atomic species (ntypx) = 10
     Max number of k-points (npk) =  40000
     Max angular momentum in pseudopotentials (lmaxx) =  4

     Atomic positions and unit cell read from directory:
     sweeps/MCL_12/MCL_02.save/
 
 
     Subspace diagonalization in iterative solution of the eigenvalue problem:
     a serial algorithm will be used

 
     G-vector sticks info
     --------------------
     sticks:   dense  smooth     PW     G-vecs:    dense   smooth      PW
     Sum         925     925    269                37505    37505    6005
 
     Using Slab Decomposition
 


     bravais-lattice index     =           12
     lattice parameter (alat)  =       6.2832  a.u.
     unit-cell volume          =     387.6296 (a.u.)^3
     number of atoms/cell      =            1
     number of atomic types    =            1
     number of electrons       =         4.00
     number of Kohn-Sham states=            6
     kinetic-energy cutoff     =      80.0000  Ry
     charge density cutoff     =     320.0000  Ry
     Exchange-correlation= PBE
                           (   1   4   3   4   0   0   0)

     celldm(1)=   6.283185  celldm(2)=   1.300000  celldm(3)=   1.700000
     celldm(4)=   0.707107  celldm(5)=   0.000000  celldm(6)=   0.000000

     crystal axes: (cart. coord. in units of alat)
               a(1) = (   1.000000   0.000000   0.000000 )  
               a(2) = (   0.919239   0.919239   0.000000 )  
               a(3) = (   0.000000   0.000000   1.700000 )  

     reciprocal axes: (cart. coord. in units 2 pi/alat)
               b(1) = (  1.000000 -1.000000  0.000000 )  
               b(2) = (  0.000000  1.087857  0.000000 )  
               b(3) = (  0.000000  0.000000  0.588235 )  


     PseudoPot. # 1 for C  read from file:
     ./C_ONCV_PBE_sr.upf
     MD5 check sum: b68b6074392897e22e8b22f1bd7aa93e
     Pseudo is Norm-conserving, Zval =  4.0
     Generated using ONCVPSP code by D. R. Hamann
     Using radial grid of 1248 points,  4 beta functions with: 
                l(1) =   0
                l(2) =   0
                l(3) =   1
                l(4) =   1

     atomic species   valence    mass     pseudopotential
     C                 4.00    10.81100     C ( 1.00)

      4 Sym. Ops., with inversion, found


                                    s                        frac. trans.

      isym =  1     identity                                     

 cryst.   s( 1) = (     1          0          0      )
                  (     0          1          0      )
                  (     0          0          1      )

 cart.    s( 1) = (  1.0000000  0.0000000  0.0000000 )
                  (  0.0000000  1.0000000  0.0000000 )
                  (  0.0000000  0.0000000  1.0000000 )


      isym =  2     180 deg rotation - cart. axis [0,0,1]        

 cryst.   s( 2) = (    -1          0          0      )
                  (     0         -1          0      )
                  (     0          0          1      )

 cart.    s( 2) = ( -1.0000000  0.0000000  0.0000000 )
                  (  0.0000000 -1.0000000  0.0000000 )
                  (  0.0000000  0.0000000  1.0000000 )


      isym =  3     inversion                                    

 cryst.   s( 3) = (    -1          0          0      )
                  (     0         -1          0      )
                  (     0          0         -1      )

 cart.    s( 3) = ( -1.0000000  0.0000000  0.0000000 )
                  (  0.0000000 -1.0000000  0.0000000 )
                  (  0.0000000  0.0000000 -1.0000000 )


      isym =  4     inv. 180 deg rotation - cart. axis [0,0,1]   

 cryst.   s( 4) = (     1          0          0      )
                  (     0          1          0      )
                  (     0          0         -1      )

 cart.    s( 4) = (  1.0000000  0.0000000  0.0000000 )
                  (  0.0000000  1.0000000  0.0000000 )
                  (  0.0000000  0.0000000 -1.0000000 )


     point group C_2h (2/m) 
     there are  4 classes
     the character table:

       E     C2    i     s_h  
A_g    1.00  1.00  1.00  1.00
B_g    1.00 -1.00  1.00 -1.00
A_u    1.00  1.00 -1.00 -1.00
B_u    1.00 -1.00 -1.00  1.00

     the symmetry operations in each class and the name of the first element:

     E        1
          identity                                               
     C2       2
          180 deg rotation - cart. axis [0,0,1]                  
     i        3
          inversion                                              
     s_h      4
          inv. 180 deg rotation - cart. axis [0,0,1]             

   Cartesian axes

     site n.     atom                  positions (alat units)
         1        C      tau(   1) = (   0.0000000   0.0000000   0.0000000  )

   Crystallographic axes

     site n.     atom                  positions (cryst. coord.)
         1        C      tau(   1) = (  0.0000000  0.0000000  0.0000000  )

     number of k points=     5  Gaussian smearing, width (Ry)=  0.0050
                       cart. coord. in units 2pi/alat
        k(    1) = (   0.5000000  -0.5000000   0.2941176), wk =   0.4000000
        k(    2) = (   0.0000000   0.5439283   0.2941176), wk =   0.4000000
        k(    3) = (   0.5000000  -0.5000000   0.0000000), wk =   0.4000000
        k(    4) = (   0.0000000   0.5439283   0.0000000), wk =   0.4000000
        k(    5) = (   0.0000000   0.0000000   0.2941176), wk =   0.4000000

                       cryst. coord.
        k(    1) = (   0.5000000  -0.0000000   0.5000000), wk =   0.4000000
        k(    2) = (   0.0000000   0.5000000   0.5000000), wk =   0.4000000
        k(    3) = (   0.5000000   0.0000000   0.0000000), wk =   0.4000000
        k(    4) = (   0.0000000   0.5000000   0.0000000), wk =   0.4000000
        k(    5) = (   0.0000000   0.0000000   0.5000000), wk =   0.4000000

     Dense  grid:    37505 G-vectors     FFT dimensions: (  36,  48,  64)

     Dynamical RAM for                 wfc:       0.43 MB

     Dynamical RAM for     wfc (w. buffer):       0.43 MB

     Dynamical RAM for           str. fact:       0.57 MB

     Dynamical RAM for           local pot:       0.00 MB

     Dynamical RAM for          nlocal pot:       0.57 MB

     Dynamical RAM for                qrad:       0.41 MB

     Dynamical RAM for          rho,v,vnew:       4.25 MB

     Dynamical RAM for           G-vectors:       2.43 MB

     Dynamical RAM for          h,s,v(r/c):       0.01 MB

     Dynamical RAM for          <psi|beta>:       0.00 MB

     Dynamical RAM for                 psi:       0.86 MB

     Dynamical RAM for                hpsi:       0.86 MB

     Dynamical RAM for      wfcinit/wfcrot:       0.86 MB

     Estimated static dynamical RAM per process >      14.03 MB

     Estimated max dynamical RAM per process >      15.75 MB

     The potential is recalculated from file :
     sweeps/MCL_12/MCL_02.save/charge-density

     Starting wfcs are    4 randomized atomic wfcs +    2 random wfcs

     Band Structure Calculation
     Davidson diagonalization with overlap

     Computing kpt #:     1  of     5
     total cpu time spent up to now is        1.3 secs

     Computing kpt #:     2  of     5
     total cpu time spent up to now is        2.4 secs

     Computing kpt #:     3  of     5
     total cpu time spent up to now is        3.1 secs

     Computing kpt #:     4  of     5
     total cpu time spent up to now is        3.3 secs

     Computing kpt #:     5  of     5
     total cpu time spent up to now is        3.5 secs

     ethr =  2.50E-10,  avg # of iterations = 27.8

     total cpu time spent up to now is        3.5 secs

     End of band structure calculation

          k = 0.5000-0.5000 0.2941 (  4696 PWs)   bands (ev):

   -11.5245  -4.4996  -4.0904  -3.2528   5.6369   6.7800

          k = 0.0000 0.5439 0.2941 (  4656 PWs)   bands (ev):

   -11.9706  -4.9760  -3.5932  -2.4662   4.3872   5.9696

          k = 0.5000-0.5000 0.0000 (  4698 PWs)   bands (ev):

   -11.5270  -4.5076  -4.0967  -3.2197   5.2845   7.9228

          k = 0.0000 0.5439 0.0000 (  4682 PWs)   bands (ev):

   -11.9744  -4.9911  -3.5323  -2.4671   5.0847   5.2503

          k = 0.0000 0.0000 0.2941 (  4682 PWs)   bands (ev):

   -12.8358  -4.3819  -2.8038  -2.0605   2.3493   4.0019

     Writing all to output data dir sweeps/MCL_12/MCL_02.save/ :
     XML data file, pseudopotentials, collected wavefunctions
 
     init_run     :      4.86s CPU      0.14s WALL (       1 calls)
     electrons    :    223.51s CPU      3.34s WALL (       1 calls)

     Called by init_run:
     wfcinit      :      0.05s CPU      0.00s WALL (       1 calls)
     wfcinit:atom :      0.35s CPU      0.01s WALL (       5 calls)
     wfcinit:wfcr :     13.65s CPU      0.21s WALL (       5 calls)
     potinit      :      2.26s CPU      0.04s WALL (       1 calls)
     hinit0       :      2.53s CPU      0.07s WALL (       1 calls)

     Called by electrons:
     c_bands      :    223.50s CPU      3.34s WALL (       1 calls)
     v_of_rho     :      2.02s CPU      0.04s WALL (       1 calls)
     v_h          :      0.22s CPU      0.00s WALL (       1 calls)
     v_xc         :      1.79s CPU      0.03s WALL (       1 calls)

     Called by c_bands:
     init_us_2    :      0.68s CPU      0.01s WALL (       5 calls)
     cegterg      :    207.72s CPU      3.09s WALL (      10 calls)

     Called by sum_band:

     Called by *egterg:
     cdiaghg      :      0.95s CPU      0.01s WALL (     144 calls)
     cegterg:over :      2.00s CPU      0.03s WALL (     139 calls)
     cegterg:upda :     12.07s CPU      0.19s WALL (     139 calls)
     cegterg:last :      1.76s CPU      0.02s WALL (      78 calls)
     h_psi        :    198.93s CPU      2.97s WALL (     154 calls)
     g_psi        :      2.59s CPU      0.04s WALL (     139 calls)

     Called by h_psi:
     h_psi:calbec :      1.49s CPU      0.02s WALL (     154 calls)
     vloc_psi     :    193.52s CPU      2.89s WALL (     154 calls)
     add_vuspsi   :      1.04s CPU      0.01s WALL (     154 calls)

     General routines
     calbec       :      1.26s CPU      0.02s WALL (     154 calls)
     fft          :      1.53s CPU      0.03s WALL (      10 calls)
     fftw         :     78.05s CPU      1.05s WALL (    1030 calls)
     davcio       :      0.10s CPU      0.00s WALL (      10 calls)
 
     Parallel routines
 
     PWSCF        :   3m51.51s CPU      3.53s WALL

 
   This run was terminated on:  11:47: 7  17Jun2025            

=------------------------------------------------------------------------------=
   JOB DONE.
=------------------------------------------------------------------------------=
