
     Program PWSCF v.7.3.1 starts on 17Jun2025 at 11:46:57 

     This program is part of the open-source Quantum ESPRESSO suite
     for quantum simulation of materials; please cite
         "P. Giannozzi et al., J. Phys.:Condens. Matter 21 395502 (2009);
         "P. Giannozzi et al., J. Phys.:Condens. Matter 29 465901 (2017);
         "P. Giannozzi et al., J. Chem. Phys. 152 154105 (2020);
          URL http://www.quantum-espresso.org", 
     in publications or presentations arising from this work. More details at
     http://www.quantum-espresso.org/quote

     Parallel version (MPI & OpenMP), running on      96 processor cores
     Number of MPI processes:                 1
     Threads/MPI process:                    96

     MPI processes distributed on     1 nodes
     122073 MiB available memory on the printing compute node when the environment starts
 
     Waiting for input...
     Reading input from standard input
Warning: card &IONS ignored
Warning: card     ION_DYNAMICS = 'BFGS' ignored
Warning: card /&END ignored

     Current dimensions of program PWSCF are:
     Max number of different atomic species (ntypx) = 10
     Max number of k-points (npk) =  40000
     Max angular momentum in pseudopotentials (lmaxx) =  4

     Atomic positions and unit cell read from directory:
     sweeps/MCL_12/MCL_01.save/
 
 
     Subspace diagonalization in iterative solution of the eigenvalue problem:
     a serial algorithm will be used

 
     G-vector sticks info
     --------------------
     sticks:   dense  smooth     PW     G-vecs:    dense   smooth      PW
     Sum         123     123     47                 2545     2545     585
 
     Using Slab Decomposition
 


     bravais-lattice index     =           12
     lattice parameter (alat)  =       3.1416  a.u.
     unit-cell volume          =      26.2230 (a.u.)^3
     number of atoms/cell      =            1
     number of atomic types    =            1
     number of electrons       =         4.00
     number of Kohn-Sham states=            6
     kinetic-energy cutoff     =      80.0000  Ry
     charge density cutoff     =     320.0000  Ry
     Exchange-correlation= PBE
                           (   1   4   3   4   0   0   0)

     celldm(1)=   3.141593  celldm(2)=   1.300000  celldm(3)=   1.700000
     celldm(4)=   0.923880  celldm(5)=   0.000000  celldm(6)=   0.000000

     crystal axes: (cart. coord. in units of alat)
               a(1) = (   1.000000   0.000000   0.000000 )  
               a(2) = (   1.201043   0.497488   0.000000 )  
               a(3) = (   0.000000   0.000000   1.700000 )  

     reciprocal axes: (cart. coord. in units 2 pi/alat)
               b(1) = (  1.000000 -2.414214  0.000000 )  
               b(2) = (  0.000000  2.010097  0.000000 )  
               b(3) = (  0.000000  0.000000  0.588235 )  


     PseudoPot. # 1 for C  read from file:
     ./C_ONCV_PBE_sr.upf
     MD5 check sum: b68b6074392897e22e8b22f1bd7aa93e
     Pseudo is Norm-conserving, Zval =  4.0
     Generated using ONCVPSP code by D. R. Hamann
     Using radial grid of 1248 points,  4 beta functions with: 
                l(1) =   0
                l(2) =   0
                l(3) =   1
                l(4) =   1

     atomic species   valence    mass     pseudopotential
     C                 4.00    10.81100     C ( 1.00)

      4 Sym. Ops., with inversion, found


                                    s                        frac. trans.

      isym =  1     identity                                     

 cryst.   s( 1) = (     1          0          0      )
                  (     0          1          0      )
                  (     0          0          1      )

 cart.    s( 1) = (  1.0000000 -0.0000000  0.0000000 )
                  (  0.0000000  1.0000000  0.0000000 )
                  (  0.0000000  0.0000000  1.0000000 )


      isym =  2     180 deg rotation - cart. axis [0,0,1]        

 cryst.   s( 2) = (    -1          0          0      )
                  (     0         -1          0      )
                  (     0          0          1      )

 cart.    s( 2) = ( -1.0000000  0.0000000  0.0000000 )
                  (  0.0000000 -1.0000000  0.0000000 )
                  (  0.0000000  0.0000000  1.0000000 )


      isym =  3     inversion                                    

 cryst.   s( 3) = (    -1          0          0      )
                  (     0         -1          0      )
                  (     0          0         -1      )

 cart.    s( 3) = ( -1.0000000  0.0000000  0.0000000 )
                  (  0.0000000 -1.0000000  0.0000000 )
                  (  0.0000000  0.0000000 -1.0000000 )


      isym =  4     inv. 180 deg rotation - cart. axis [0,0,1]   

 cryst.   s( 4) = (     1          0          0      )
                  (     0          1          0      )
                  (     0          0         -1      )

 cart.    s( 4) = (  1.0000000 -0.0000000  0.0000000 )
                  (  0.0000000  1.0000000  0.0000000 )
                  (  0.0000000  0.0000000 -1.0000000 )


     point group C_2h (2/m) 
     there are  4 classes
     the character table:

       E     C2    i     s_h  
A_g    1.00  1.00  1.00  1.00
B_g    1.00 -1.00  1.00 -1.00
A_u    1.00  1.00 -1.00 -1.00
B_u    1.00 -1.00 -1.00  1.00

     the symmetry operations in each class and the name of the first element:

     E        1
          identity                                               
     C2       2
          180 deg rotation - cart. axis [0,0,1]                  
     i        3
          inversion                                              
     s_h      4
          inv. 180 deg rotation - cart. axis [0,0,1]             

   Cartesian axes

     site n.     atom                  positions (alat units)
         1        C      tau(   1) = (   0.0000000   0.0000000   0.0000000  )

   Crystallographic axes

     site n.     atom                  positions (cryst. coord.)
         1        C      tau(   1) = (  0.0000000  0.0000000  0.0000000  )

     number of k points=     5  Gaussian smearing, width (Ry)=  0.0050
                       cart. coord. in units 2pi/alat
        k(    1) = (   0.5000000  -0.2020583   0.2941176), wk =   0.4000000
        k(    2) = (   0.0000000   1.0050484   0.2941176), wk =   0.4000000
        k(    3) = (   0.5000000  -0.2020583   0.0000000), wk =   0.4000000
        k(    4) = (   0.0000000   1.0050484   0.0000000), wk =   0.4000000
        k(    5) = (   0.0000000   0.0000000   0.2941176), wk =   0.4000000

                       cryst. coord.
        k(    1) = (   0.5000000   0.5000000   0.5000000), wk =   0.4000000
        k(    2) = (   0.0000000   0.5000000   0.5000000), wk =   0.4000000
        k(    3) = (   0.5000000   0.5000000   0.0000000), wk =   0.4000000
        k(    4) = (   0.0000000   0.5000000   0.0000000), wk =   0.4000000
        k(    5) = (   0.0000000   0.0000000   0.5000000), wk =   0.4000000

     Dense  grid:     2545 G-vectors     FFT dimensions: (  18,  24,  32)

     Dynamical RAM for                 wfc:       0.03 MB

     Dynamical RAM for     wfc (w. buffer):       0.03 MB

     Dynamical RAM for           str. fact:       0.04 MB

     Dynamical RAM for           local pot:       0.00 MB

     Dynamical RAM for          nlocal pot:       0.04 MB

     Dynamical RAM for                qrad:       0.41 MB

     Dynamical RAM for          rho,v,vnew:       0.43 MB

     Dynamical RAM for           G-vectors:       0.17 MB

     Dynamical RAM for          h,s,v(r/c):       0.01 MB

     Dynamical RAM for          <psi|beta>:       0.00 MB

     Dynamical RAM for                 psi:       0.06 MB

     Dynamical RAM for                hpsi:       0.06 MB

     Dynamical RAM for      wfcinit/wfcrot:       0.06 MB

     Estimated static dynamical RAM per process >       1.72 MB

     Estimated max dynamical RAM per process >       1.84 MB

     The potential is recalculated from file :
     sweeps/MCL_12/MCL_01.save/charge-density

     Starting wfcs are    4 randomized atomic wfcs +    2 random wfcs

     Band Structure Calculation
     Davidson diagonalization with overlap

     Computing kpt #:     1  of     5
     total cpu time spent up to now is        0.3 secs

     Computing kpt #:     2  of     5
     total cpu time spent up to now is        0.5 secs

     Computing kpt #:     3  of     5
     total cpu time spent up to now is        0.6 secs

     Computing kpt #:     4  of     5
     total cpu time spent up to now is        0.8 secs

     Computing kpt #:     5  of     5
     total cpu time spent up to now is        0.9 secs

     ethr =  2.50E-10,  avg # of iterations = 16.0

     total cpu time spent up to now is        0.9 secs

     End of band structure calculation

          k = 0.5000-0.2021 0.2941 (   332 PWs)   bands (ev):

    -5.6117   5.8961   8.8116  24.4134  41.9105  52.6850

          k = 0.0000 1.0050 0.2941 (   316 PWs)   bands (ev):

     4.5371  38.6589  45.6118  46.5845  58.6363  64.5668

          k = 0.5000-0.2021 0.0000 (   324 PWs)   bands (ev):

    -5.7756   5.1455  10.1844  30.6011  34.3506  36.9237

          k = 0.0000 1.0050 0.0000 (   314 PWs)   bands (ev):

     4.5206  38.5570  45.0337  47.5087  62.3201  62.8155

          k = 0.0000 0.0000 0.2941 (   316 PWs)   bands (ev):

   -10.1114   0.0854  21.6578  28.7644  39.3814  56.3418

     Writing all to output data dir sweeps/MCL_12/MCL_01.save/ :
     XML data file, pseudopotentials, collected wavefunctions
 
     init_run     :      2.75s CPU      0.09s WALL (       1 calls)
     electrons    :     41.25s CPU      0.82s WALL (       1 calls)

     Called by init_run:
     wfcinit      :      0.05s CPU      0.00s WALL (       1 calls)
     wfcinit:atom :      0.06s CPU      0.00s WALL (       5 calls)
     wfcinit:wfcr :      2.84s CPU      0.06s WALL (       5 calls)
     potinit      :      0.36s CPU      0.01s WALL (       1 calls)
     hinit0       :      2.34s CPU      0.08s WALL (       1 calls)

     Called by electrons:
     c_bands      :     41.25s CPU      0.82s WALL (       1 calls)
     v_of_rho     :      0.33s CPU      0.01s WALL (       1 calls)
     v_h          :      0.07s CPU      0.00s WALL (       1 calls)
     v_xc         :      0.25s CPU      0.01s WALL (       1 calls)

     Called by c_bands:
     init_us_2    :      0.18s CPU      0.00s WALL (       5 calls)
     cegterg      :     37.79s CPU      0.76s WALL (       5 calls)

     Called by sum_band:

     Called by *egterg:
     cdiaghg      :      0.38s CPU      0.01s WALL (      85 calls)
     cegterg:over :      0.12s CPU      0.00s WALL (      80 calls)
     cegterg:upda :      2.45s CPU      0.05s WALL (      80 calls)
     cegterg:last :      0.09s CPU      0.00s WALL (      60 calls)
     h_psi        :     35.58s CPU      0.71s WALL (      90 calls)
     g_psi        :      0.82s CPU      0.02s WALL (      80 calls)

     Called by h_psi:
     h_psi:calbec :      0.12s CPU      0.00s WALL (      90 calls)
     vloc_psi     :     34.18s CPU      0.68s WALL (      90 calls)
     add_vuspsi   :      0.12s CPU      0.00s WALL (      90 calls)

     General routines
     calbec       :      0.07s CPU      0.00s WALL (      90 calls)
     fft          :      0.89s CPU      0.02s WALL (      10 calls)
     fftw         :      9.00s CPU      0.18s WALL (     774 calls)
     davcio       :      0.02s CPU      0.00s WALL (      10 calls)
 
     Parallel routines
 
     PWSCF        :     45.39s CPU      0.96s WALL

 
   This run was terminated on:  11:46:58  17Jun2025            

=------------------------------------------------------------------------------=
   JOB DONE.
=------------------------------------------------------------------------------=
