
     Program PWSCF v.7.3.1 starts on 17Jun2025 at 11:47:25 

     This program is part of the open-source Quantum ESPRESSO suite
     for quantum simulation of materials; please cite
         "P. Giannozzi et al., J. Phys.:Condens. Matter 21 395502 (2009);
         "P. Giannozzi et al., J. Phys.:Condens. Matter 29 465901 (2017);
         "P. Giannozzi et al., J. Chem. Phys. 152 154105 (2020);
          URL http://www.quantum-espresso.org", 
     in publications or presentations arising from this work. More details at
     http://www.quantum-espresso.org/quote

     Parallel version (MPI & OpenMP), running on      96 processor cores
     Number of MPI processes:                 1
     Threads/MPI process:                    96

     MPI processes distributed on     1 nodes
     121969 MiB available memory on the printing compute node when the environment starts
 
     Waiting for input...
     Reading input from standard input
Warning: card &IONS ignored
Warning: card     ION_DYNAMICS = 'BFGS' ignored
Warning: card /&END ignored

     Current dimensions of program PWSCF are:
     Max number of different atomic species (ntypx) = 10
     Max number of k-points (npk) =  40000
     Max angular momentum in pseudopotentials (lmaxx) =  4

     Atomic positions and unit cell read from directory:
     sweeps/MCL_12/MCL_03.save/
 
 
     Subspace diagonalization in iterative solution of the eigenvalue problem:
     a serial algorithm will be used

 
     G-vector sticks info
     --------------------
     sticks:   dense  smooth     PW     G-vecs:    dense   smooth      PW
     Sum        2709    2709    739               165243   165243   23545
 
     Using Slab Decomposition
 


     bravais-lattice index     =           12
     lattice parameter (alat)  =       9.4248  a.u.
     unit-cell volume          =    1709.3107 (a.u.)^3
     number of atoms/cell      =            1
     number of atomic types    =            1
     number of electrons       =         4.00
     number of Kohn-Sham states=            6
     kinetic-energy cutoff     =      80.0000  Ry
     charge density cutoff     =     320.0000  Ry
     Exchange-correlation= PBE
                           (   1   4   3   4   0   0   0)

     celldm(1)=   9.424778  celldm(2)=   1.300000  celldm(3)=   1.700000
     celldm(4)=   0.382683  celldm(5)=   0.000000  celldm(6)=   0.000000

     crystal axes: (cart. coord. in units of alat)
               a(1) = (   1.000000   0.000000   0.000000 )  
               a(2) = (   0.497488   1.201043   0.000000 )  
               a(3) = (   0.000000   0.000000   1.700000 )  

     reciprocal axes: (cart. coord. in units 2 pi/alat)
               b(1) = (  1.000000 -0.414214  0.000000 )  
               b(2) = (  0.000000  0.832609  0.000000 )  
               b(3) = (  0.000000  0.000000  0.588235 )  


     PseudoPot. # 1 for C  read from file:
     ./C_ONCV_PBE_sr.upf
     MD5 check sum: b68b6074392897e22e8b22f1bd7aa93e
     Pseudo is Norm-conserving, Zval =  4.0
     Generated using ONCVPSP code by D. R. Hamann
     Using radial grid of 1248 points,  4 beta functions with: 
                l(1) =   0
                l(2) =   0
                l(3) =   1
                l(4) =   1

     atomic species   valence    mass     pseudopotential
     C                 4.00    10.81100     C ( 1.00)

      4 Sym. Ops., with inversion, found


                                    s                        frac. trans.

      isym =  1     identity                                     

 cryst.   s( 1) = (     1          0          0      )
                  (     0          1          0      )
                  (     0          0          1      )

 cart.    s( 1) = (  1.0000000 -0.0000000  0.0000000 )
                  (  0.0000000  1.0000000  0.0000000 )
                  (  0.0000000  0.0000000  1.0000000 )


      isym =  2     180 deg rotation - cart. axis [0,0,1]        

 cryst.   s( 2) = (    -1          0          0      )
                  (     0         -1          0      )
                  (     0          0          1      )

 cart.    s( 2) = ( -1.0000000  0.0000000  0.0000000 )
                  (  0.0000000 -1.0000000  0.0000000 )
                  (  0.0000000  0.0000000  1.0000000 )


      isym =  3     inversion                                    

 cryst.   s( 3) = (    -1          0          0      )
                  (     0         -1          0      )
                  (     0          0         -1      )

 cart.    s( 3) = ( -1.0000000  0.0000000  0.0000000 )
                  (  0.0000000 -1.0000000  0.0000000 )
                  (  0.0000000  0.0000000 -1.0000000 )


      isym =  4     inv. 180 deg rotation - cart. axis [0,0,1]   

 cryst.   s( 4) = (     1          0          0      )
                  (     0          1          0      )
                  (     0          0         -1      )

 cart.    s( 4) = (  1.0000000 -0.0000000  0.0000000 )
                  (  0.0000000  1.0000000  0.0000000 )
                  (  0.0000000  0.0000000 -1.0000000 )


     point group C_2h (2/m) 
     there are  4 classes
     the character table:

       E     C2    i     s_h  
A_g    1.00  1.00  1.00  1.00
B_g    1.00 -1.00  1.00 -1.00
A_u    1.00  1.00 -1.00 -1.00
B_u    1.00 -1.00 -1.00  1.00

     the symmetry operations in each class and the name of the first element:

     E        1
          identity                                               
     C2       2
          180 deg rotation - cart. axis [0,0,1]                  
     i        3
          inversion                                              
     s_h      4
          inv. 180 deg rotation - cart. axis [0,0,1]             

   Cartesian axes

     site n.     atom                  positions (alat units)
         1        C      tau(   1) = (   0.0000000   0.0000000   0.0000000  )

   Crystallographic axes

     site n.     atom                  positions (cryst. coord.)
         1        C      tau(   1) = (  0.0000000  0.0000000  0.0000000  )

     number of k points=     5  Gaussian smearing, width (Ry)=  0.0050
                       cart. coord. in units 2pi/alat
        k(    1) = (   0.5000000  -0.2071068   0.2941176), wk =   0.4000000
        k(    2) = (   0.0000000   0.4163047   0.2941176), wk =   0.4000000
        k(    3) = (   0.5000000  -0.2071068   0.0000000), wk =   0.4000000
        k(    4) = (   0.0000000   0.4163047   0.0000000), wk =   0.4000000
        k(    5) = (   0.0000000   0.0000000   0.2941176), wk =   0.4000000

                       cryst. coord.
        k(    1) = (   0.5000000  -0.0000000   0.5000000), wk =   0.4000000
        k(    2) = (   0.0000000   0.5000000   0.5000000), wk =   0.4000000
        k(    3) = (   0.5000000  -0.0000000   0.0000000), wk =   0.4000000
        k(    4) = (   0.0000000   0.5000000   0.0000000), wk =   0.4000000
        k(    5) = (   0.0000000   0.0000000   0.5000000), wk =   0.4000000

     Dense  grid:   165243 G-vectors     FFT dimensions: (  54,  72,  96)

     Dynamical RAM for                 wfc:       1.89 MB

     Dynamical RAM for     wfc (w. buffer):       1.89 MB

     Dynamical RAM for           str. fact:       2.52 MB

     Dynamical RAM for           local pot:       0.00 MB

     Dynamical RAM for          nlocal pot:       2.52 MB

     Dynamical RAM for                qrad:       0.41 MB

     Dynamical RAM for          rho,v,vnew:      16.11 MB

     Dynamical RAM for           G-vectors:      10.72 MB

     Dynamical RAM for          h,s,v(r/c):       0.01 MB

     Dynamical RAM for          <psi|beta>:       0.00 MB

     Dynamical RAM for                 psi:       3.78 MB

     Dynamical RAM for                hpsi:       3.78 MB

     Dynamical RAM for      wfcinit/wfcrot:       3.78 MB

     Estimated static dynamical RAM per process >      53.45 MB

     Estimated max dynamical RAM per process >      61.02 MB

     The potential is recalculated from file :
     sweeps/MCL_12/MCL_03.save/charge-density

     Starting wfcs are    4 randomized atomic wfcs +    2 random wfcs

     Band Structure Calculation
     Davidson diagonalization with overlap

     Computing kpt #:     1  of     5
     total cpu time spent up to now is        3.7 secs

     Computing kpt #:     2  of     5
     total cpu time spent up to now is        5.7 secs

     Computing kpt #:     3  of     5
     total cpu time spent up to now is        6.9 secs

     Computing kpt #:     4  of     5
     total cpu time spent up to now is        8.0 secs

     Computing kpt #:     5  of     5
     total cpu time spent up to now is        8.9 secs

     ethr =  2.50E-10,  avg # of iterations = 49.2

     total cpu time spent up to now is        8.9 secs

     End of band structure calculation

          k = 0.5000-0.2071 0.2941 ( 20644 PWs)   bands (ev):

   -13.3977  -5.0172  -4.9307  -4.9263   1.6835   1.7021

          k = 0.0000 0.4163 0.2941 ( 20608 PWs)   bands (ev):

   -13.4162  -4.9963  -4.9646  -4.7724   0.9714   1.0797

          k = 0.5000-0.2071 0.0000 ( 20628 PWs)   bands (ev):

   -13.3977  -5.0176  -4.9287  -4.9265   1.2643   1.3248

          k = 0.0000 0.4163 0.0000 ( 20632 PWs)   bands (ev):

   -13.4162  -4.9968  -4.9616  -4.7725   0.5548   0.6250

          k = 0.0000 0.0000 0.2941 ( 20706 PWs)   bands (ev):

   -13.4182  -4.9736  -4.9367  -4.7683  -0.1377   0.2456

     Writing all to output data dir sweeps/MCL_12/MCL_03.save/ :
     XML data file, pseudopotentials, collected wavefunctions
 
     init_run     :      8.65s CPU      0.26s WALL (       1 calls)
     electrons    :    701.94s CPU      8.65s WALL (       1 calls)

     Called by init_run:
     wfcinit      :      0.06s CPU      0.00s WALL (       1 calls)
     wfcinit:atom :      0.48s CPU      0.01s WALL (       5 calls)
     wfcinit:wfcr :     25.90s CPU      0.32s WALL (       5 calls)
     potinit      :      5.34s CPU      0.10s WALL (       1 calls)
     hinit0       :      3.20s CPU      0.09s WALL (       1 calls)

     Called by electrons:
     c_bands      :    701.93s CPU      8.65s WALL (       1 calls)
     v_of_rho     :      4.44s CPU      0.09s WALL (       1 calls)
     v_h          :      0.33s CPU      0.01s WALL (       1 calls)
     v_xc         :      4.11s CPU      0.08s WALL (       1 calls)

     Called by c_bands:
     init_us_2    :      1.08s CPU      0.02s WALL (       5 calls)
     cegterg      :    672.96s CPU      8.30s WALL (      15 calls)

     Called by sum_band:

     Called by *egterg:
     cdiaghg      :      1.88s CPU      0.02s WALL (     251 calls)
     cegterg:over :     18.08s CPU      0.22s WALL (     246 calls)
     cegterg:upda :     14.36s CPU      0.18s WALL (     246 calls)
     cegterg:last :     13.84s CPU      0.17s WALL (     123 calls)
     h_psi        :    639.82s CPU      7.87s WALL (     266 calls)
     g_psi        :      1.51s CPU      0.03s WALL (     246 calls)

     Called by h_psi:
     h_psi:calbec :     10.22s CPU      0.12s WALL (     266 calls)
     vloc_psi     :    618.13s CPU      7.61s WALL (     266 calls)
     add_vuspsi   :      7.18s CPU      0.09s WALL (     266 calls)

     General routines
     calbec       :      9.70s CPU      0.12s WALL (     266 calls)
     fft          :      2.56s CPU      0.05s WALL (      10 calls)
     fftw         :    568.51s CPU      6.95s WALL (    1580 calls)
     davcio       :      0.41s CPU      0.00s WALL (      10 calls)
 
     Parallel routines
 
     PWSCF        :  11m56.76s CPU      9.00s WALL

 
   This run was terminated on:  11:47:34  17Jun2025            

=------------------------------------------------------------------------------=
   JOB DONE.
=------------------------------------------------------------------------------=
