
     Program PWSCF v.7.3.1 starts on 17Jun2025 at 11:46:54 

     This program is part of the open-source Quantum ESPRESSO suite
     for quantum simulation of materials; please cite
         "P. Giannozzi et al., J. Phys.:Condens. Matter 21 395502 (2009);
         "P. Giannozzi et al., J. Phys.:Condens. Matter 29 465901 (2017);
         "P. Giannozzi et al., J. Chem. Phys. 152 154105 (2020);
          URL http://www.quantum-espresso.org", 
     in publications or presentations arising from this work. More details at
     http://www.quantum-espresso.org/quote

     Parallel version (MPI & OpenMP), running on      96 processor cores
     Number of MPI processes:                 1
     Threads/MPI process:                    96

     MPI processes distributed on     1 nodes
     122083 MiB available memory on the printing compute node when the environment starts
 
     Waiting for input...
     Reading input from standard input

     Current dimensions of program PWSCF are:
     Max number of different atomic species (ntypx) = 10
     Max number of k-points (npk) =  40000
     Max angular momentum in pseudopotentials (lmaxx) =  4
 
     Subspace diagonalization in iterative solution of the eigenvalue problem:
     a serial algorithm will be used

 
     G-vector sticks info
     --------------------
     sticks:   dense  smooth     PW     G-vecs:    dense   smooth      PW
     Sum         123     123     53                 2545     2545     695
 
     Using Slab Decomposition
 


     bravais-lattice index     =           12
     lattice parameter (alat)  =       3.1416  a.u.
     unit-cell volume          =      26.2230 (a.u.)^3
     number of atoms/cell      =            1
     number of atomic types    =            1
     number of electrons       =         4.00
     number of Kohn-Sham states=            6
     kinetic-energy cutoff     =      80.0000  Ry
     charge density cutoff     =     320.0000  Ry
     scf convergence threshold =      1.0E-08
     mixing beta               =       0.7000
     number of iterations used =            8  plain     mixing
     Exchange-correlation= PBE
                           (   1   4   3   4   0   0   0)

     celldm(1)=   3.141593  celldm(2)=   1.300000  celldm(3)=   1.700000
     celldm(4)=   0.923880  celldm(5)=   0.000000  celldm(6)=   0.000000

     crystal axes: (cart. coord. in units of alat)
               a(1) = (   1.000000   0.000000   0.000000 )  
               a(2) = (   1.201043   0.497488   0.000000 )  
               a(3) = (   0.000000   0.000000   1.700000 )  

     reciprocal axes: (cart. coord. in units 2 pi/alat)
               b(1) = (  1.000000 -2.414214  0.000000 )  
               b(2) = (  0.000000  2.010097  0.000000 )  
               b(3) = (  0.000000  0.000000  0.588235 )  


     PseudoPot. # 1 for C  read from file:
     ./C_ONCV_PBE_sr.upf
     MD5 check sum: b68b6074392897e22e8b22f1bd7aa93e
     Pseudo is Norm-conserving, Zval =  4.0
     Generated using ONCVPSP code by D. R. Hamann
     Using radial grid of 1248 points,  4 beta functions with: 
                l(1) =   0
                l(2) =   0
                l(3) =   1
                l(4) =   1

     atomic species   valence    mass     pseudopotential
     C                 4.00    10.81100     C ( 1.00)

      4 Sym. Ops., with inversion, found


                                    s                        frac. trans.

      isym =  1     identity                                     

 cryst.   s( 1) = (     1          0          0      )
                  (     0          1          0      )
                  (     0          0          1      )

 cart.    s( 1) = (  1.0000000  0.0000000  0.0000000 )
                  (  0.0000000  1.0000000  0.0000000 )
                  (  0.0000000  0.0000000  1.0000000 )


      isym =  2     180 deg rotation - cart. axis [0,0,1]        

 cryst.   s( 2) = (    -1          0          0      )
                  (     0         -1          0      )
                  (     0          0          1      )

 cart.    s( 2) = ( -1.0000000 -0.0000000  0.0000000 )
                  (  0.0000000 -1.0000000  0.0000000 )
                  (  0.0000000  0.0000000  1.0000000 )


      isym =  3     inversion                                    

 cryst.   s( 3) = (    -1          0          0      )
                  (     0         -1          0      )
                  (     0          0         -1      )

 cart.    s( 3) = ( -1.0000000 -0.0000000  0.0000000 )
                  (  0.0000000 -1.0000000  0.0000000 )
                  (  0.0000000  0.0000000 -1.0000000 )


      isym =  4     inv. 180 deg rotation - cart. axis [0,0,1]   

 cryst.   s( 4) = (     1          0          0      )
                  (     0          1          0      )
                  (     0          0         -1      )

 cart.    s( 4) = (  1.0000000  0.0000000  0.0000000 )
                  (  0.0000000  1.0000000  0.0000000 )
                  (  0.0000000  0.0000000 -1.0000000 )


     point group C_2h (2/m) 
     there are  4 classes
     the character table:

       E     C2    i     s_h  
A_g    1.00  1.00  1.00  1.00
B_g    1.00 -1.00  1.00 -1.00
A_u    1.00  1.00 -1.00 -1.00
B_u    1.00 -1.00 -1.00  1.00

     the symmetry operations in each class and the name of the first element:

     E        1
          identity                                               
     C2       2
          180 deg rotation - cart. axis [0,0,1]                  
     i        3
          inversion                                              
     s_h      4
          inv. 180 deg rotation - cart. axis [0,0,1]             

   Cartesian axes

     site n.     atom                  positions (alat units)
         1        C      tau(   1) = (   0.0000000   0.0000000   0.0000000  )

   Crystallographic axes

     site n.     atom                  positions (cryst. coord.)
         1        C      tau(   1) = (  0.0000000  0.0000000  0.0000000  )

     number of k points=     8  Gaussian smearing, width (Ry)=  0.0050
                       cart. coord. in units 2pi/alat
        k(    1) = (   0.0000000   0.0000000   0.0000000), wk =   0.2500000
        k(    2) = (   0.0000000   0.0000000  -0.2941176), wk =   0.2500000
        k(    3) = (   0.0000000  -1.0050484   0.0000000), wk =   0.2500000
        k(    4) = (   0.0000000  -1.0050484  -0.2941176), wk =   0.2500000
        k(    5) = (  -0.5000000   1.2071068   0.0000000), wk =   0.2500000
        k(    6) = (  -0.5000000   1.2071068  -0.2941176), wk =   0.2500000
        k(    7) = (  -0.5000000   0.2020583   0.0000000), wk =   0.2500000
        k(    8) = (  -0.5000000   0.2020583  -0.2941176), wk =   0.2500000

                       cryst. coord.
        k(    1) = (   0.0000000   0.0000000   0.0000000), wk =   0.2500000
        k(    2) = (   0.0000000   0.0000000  -0.5000000), wk =   0.2500000
        k(    3) = (   0.0000000  -0.5000000   0.0000000), wk =   0.2500000
        k(    4) = (   0.0000000  -0.5000000  -0.5000000), wk =   0.2500000
        k(    5) = (  -0.5000000  -0.0000000   0.0000000), wk =   0.2500000
        k(    6) = (  -0.5000000  -0.0000000  -0.5000000), wk =   0.2500000
        k(    7) = (  -0.5000000  -0.5000000   0.0000000), wk =   0.2500000
        k(    8) = (  -0.5000000  -0.5000000  -0.5000000), wk =   0.2500000

     Dense  grid:     2545 G-vectors     FFT dimensions: (  18,  24,  32)

     Dynamical RAM for                 wfc:       0.03 MB

     Dynamical RAM for     wfc (w. buffer):       0.26 MB

     Dynamical RAM for           str. fact:       0.04 MB

     Dynamical RAM for           local pot:       0.00 MB

     Dynamical RAM for          nlocal pot:       0.04 MB

     Dynamical RAM for                qrad:       0.41 MB

     Dynamical RAM for          rho,v,vnew:       0.43 MB

     Dynamical RAM for               rhoin:       0.14 MB

     Dynamical RAM for            rho*nmix:       0.62 MB

     Dynamical RAM for           G-vectors:       0.17 MB

     Dynamical RAM for          h,s,v(r/c):       0.01 MB

     Dynamical RAM for          <psi|beta>:       0.00 MB

     Dynamical RAM for                 psi:       0.06 MB

     Dynamical RAM for                hpsi:       0.06 MB

     Dynamical RAM for      wfcinit/wfcrot:       0.06 MB

     Estimated static dynamical RAM per process >       2.10 MB

     Estimated max dynamical RAM per process >       2.84 MB

     Initial potential from superposition of free atoms

     starting charge       4.0000, renormalised to       4.0000
     Starting wfcs are    4 randomized atomic wfcs +    2 random wfcs

     total cpu time spent up to now is        0.2 secs

     Self-consistent Calculation

     iteration #  1     ecut=    80.00 Ry     beta= 0.70
     Davidson diagonalization with overlap

---- Real-time Memory Report at c_bands before calling an iterative solver
           177 MiB given to the printing process from OS
             0 MiB allocation reported by mallinfo(arena+hblkhd)
        122016 MiB available memory on the node where the printing process lives
------------------
     ethr =  1.00E-02,  avg # of iterations =  5.1

     total cpu time spent up to now is        0.5 secs

     total energy              =     -10.20138239 Ry
     estimated scf accuracy    <       1.00953849 Ry

     iteration #  2     ecut=    80.00 Ry     beta= 0.70
     Davidson diagonalization with overlap

---- Real-time Memory Report at c_bands before calling an iterative solver
           177 MiB given to the printing process from OS
             0 MiB allocation reported by mallinfo(arena+hblkhd)
        122015 MiB available memory on the node where the printing process lives
------------------
     ethr =  1.00E-02,  avg # of iterations =  2.0

     total cpu time spent up to now is        0.7 secs

     total energy              =     -10.31548083 Ry
     estimated scf accuracy    <       0.27599665 Ry

     iteration #  3     ecut=    80.00 Ry     beta= 0.70
     Davidson diagonalization with overlap

---- Real-time Memory Report at c_bands before calling an iterative solver
           177 MiB given to the printing process from OS
             0 MiB allocation reported by mallinfo(arena+hblkhd)
        122015 MiB available memory on the node where the printing process lives
------------------
     ethr =  6.90E-03,  avg # of iterations =  1.1

     total cpu time spent up to now is        0.9 secs

     total energy              =     -10.38464282 Ry
     estimated scf accuracy    <       0.03741181 Ry

     iteration #  4     ecut=    80.00 Ry     beta= 0.70
     Davidson diagonalization with overlap

---- Real-time Memory Report at c_bands before calling an iterative solver
           178 MiB given to the printing process from OS
             0 MiB allocation reported by mallinfo(arena+hblkhd)
        122015 MiB available memory on the node where the printing process lives
------------------
     ethr =  9.35E-04,  avg # of iterations =  1.0

     total cpu time spent up to now is        1.0 secs

     total energy              =     -10.40003260 Ry
     estimated scf accuracy    <       0.00272067 Ry

     iteration #  5     ecut=    80.00 Ry     beta= 0.70
     Davidson diagonalization with overlap

---- Real-time Memory Report at c_bands before calling an iterative solver
           178 MiB given to the printing process from OS
             0 MiB allocation reported by mallinfo(arena+hblkhd)
        122014 MiB available memory on the node where the printing process lives
------------------
     ethr =  6.80E-05,  avg # of iterations =  1.6

     total cpu time spent up to now is        1.1 secs

     total energy              =     -10.39941122 Ry
     estimated scf accuracy    <       0.00170142 Ry

     iteration #  6     ecut=    80.00 Ry     beta= 0.70
     Davidson diagonalization with overlap

---- Real-time Memory Report at c_bands before calling an iterative solver
           178 MiB given to the printing process from OS
             0 MiB allocation reported by mallinfo(arena+hblkhd)
        122012 MiB available memory on the node where the printing process lives
------------------
     ethr =  4.25E-05,  avg # of iterations =  1.0

     total cpu time spent up to now is        1.4 secs

     total energy              =     -10.39951516 Ry
     estimated scf accuracy    <       0.00008387 Ry

     iteration #  7     ecut=    80.00 Ry     beta= 0.70
     Davidson diagonalization with overlap

---- Real-time Memory Report at c_bands before calling an iterative solver
           178 MiB given to the printing process from OS
             0 MiB allocation reported by mallinfo(arena+hblkhd)
        122010 MiB available memory on the node where the printing process lives
------------------
     ethr =  2.10E-06,  avg # of iterations =  1.2

     total cpu time spent up to now is        1.5 secs

     total energy              =     -10.39951214 Ry
     estimated scf accuracy    <       0.00001565 Ry

     iteration #  8     ecut=    80.00 Ry     beta= 0.70
     Davidson diagonalization with overlap

---- Real-time Memory Report at c_bands before calling an iterative solver
           178 MiB given to the printing process from OS
             0 MiB allocation reported by mallinfo(arena+hblkhd)
        122010 MiB available memory on the node where the printing process lives
------------------
     ethr =  3.91E-07,  avg # of iterations =  1.2

     total cpu time spent up to now is        1.7 secs

     total energy              =     -10.39951283 Ry
     estimated scf accuracy    <       0.00000130 Ry

     iteration #  9     ecut=    80.00 Ry     beta= 0.70
     Davidson diagonalization with overlap

---- Real-time Memory Report at c_bands before calling an iterative solver
           178 MiB given to the printing process from OS
             0 MiB allocation reported by mallinfo(arena+hblkhd)
        122010 MiB available memory on the node where the printing process lives
------------------
     ethr =  3.26E-08,  avg # of iterations =  1.4

     total cpu time spent up to now is        1.9 secs

     total energy              =     -10.39951296 Ry
     estimated scf accuracy    <       0.00000004 Ry

     iteration # 10     ecut=    80.00 Ry     beta= 0.70
     Davidson diagonalization with overlap

---- Real-time Memory Report at c_bands before calling an iterative solver
           178 MiB given to the printing process from OS
             0 MiB allocation reported by mallinfo(arena+hblkhd)
        122009 MiB available memory on the node where the printing process lives
------------------
     ethr =  8.77E-10,  avg # of iterations =  1.4

     total cpu time spent up to now is        2.1 secs

     End of self-consistent calculation

          k = 0.0000 0.0000 0.0000 (   331 PWs)   bands (ev):

   -10.7192   2.5259  20.6325  21.6219  53.0573  53.8508

     occupation numbers 
     1.0000   1.0000   1.0000   0.6488   0.0000   0.0000

          k = 0.0000 0.0000-0.2941 (   316 PWs)   bands (ev):

   -10.1108   0.0857  21.6587  28.7642  39.3816  56.3424

     occupation numbers 
     1.0000   1.0000   0.3512   0.0000   0.0000   0.0000

          k = 0.0000-1.0050 0.0000 (   314 PWs)   bands (ev):

     4.5216  38.5577  45.0343  47.5093  62.3204  62.8159

     occupation numbers 
     1.0000   0.0000   0.0000   0.0000   0.0000   0.0000

          k = 0.0000-1.0050-0.2941 (   316 PWs)   bands (ev):

     4.5381  38.6597  45.6125  46.5850  58.6365  64.5674

     occupation numbers 
     1.0000   0.0000   0.0000   0.0000   0.0000   0.0000

          k =-0.5000 1.2071 0.0000 (   308 PWs)   bands (ev):

     2.4510  40.7412  44.2858  49.9425  57.0760  64.3258

     occupation numbers 
     1.0000   0.0000   0.0000   0.0000   0.0000   0.0000

          k =-0.5000 1.2071-0.2941 (   304 PWs)   bands (ev):

     2.4740  41.5691  43.0026  50.1346  53.0306  73.0708

     occupation numbers 
     1.0000   0.0000   0.0000   0.0000   0.0000   0.0000

          k =-0.5000 0.2021 0.0000 (   324 PWs)   bands (ev):

    -5.7749   5.1461  10.1849  30.6014  34.3503  36.9235

     occupation numbers 
     1.0000   1.0000   1.0000   0.0000   0.0000   0.0000

          k =-0.5000 0.2021-0.2941 (   332 PWs)   bands (ev):

    -5.6109   5.8968   8.8121  24.4134  41.9103  52.6851

     occupation numbers 
     1.0000   1.0000   1.0000   0.0000   0.0000   0.0000

     the Fermi energy is    21.6403 ev

!    total energy              =     -10.39951296 Ry
     estimated scf accuracy    <          2.4E-09 Ry
     smearing contrib. (-TS)   =      -0.00065561 Ry
     internal energy E=F+TS    =     -10.39885735 Ry

     The total energy is F=E-TS. E is the sum of the following terms:
     one-electron contribution =      -1.83556276 Ry
     hartree contribution      =       4.28946535 Ry
     xc contribution           =      -4.37047126 Ry
     ewald contribution        =      -8.48228867 Ry

     convergence has been achieved in  10 iterations

     Writing all to output data dir sweeps/MCL_12/MCL_01.save/ :
     XML data file, charge density, pseudopotentials, collected wavefunctions
 
     init_run     :      6.53s CPU      0.19s WALL (       1 calls)
     electrons    :     98.56s CPU      1.90s WALL (       1 calls)

     Called by init_run:
     wfcinit      :      3.03s CPU      0.07s WALL (       1 calls)
     wfcinit:atom :      0.10s CPU      0.00s WALL (       8 calls)
     wfcinit:wfcr :      2.77s CPU      0.06s WALL (       8 calls)
     potinit      :      1.32s CPU      0.03s WALL (       1 calls)
     hinit0       :      2.18s CPU      0.09s WALL (       1 calls)

     Called by electrons:
     c_bands      :     77.47s CPU      1.50s WALL (      10 calls)
     sum_band     :     18.26s CPU      0.35s WALL (      10 calls)
     v_of_rho     :      2.27s CPU      0.04s WALL (      11 calls)
     v_h          :      0.71s CPU      0.01s WALL (      11 calls)
     v_xc         :      1.55s CPU      0.03s WALL (      11 calls)
     mix_rho      :      0.49s CPU      0.01s WALL (      10 calls)

     Called by c_bands:
     init_us_2    :      2.38s CPU      0.04s WALL (     168 calls)
     cegterg      :     74.91s CPU      1.45s WALL (      80 calls)

     Called by sum_band:
     sum_band:wei :      0.03s CPU      0.00s WALL (      10 calls)
     sum_band:loo :     17.44s CPU      0.33s WALL (      10 calls)
     sum_band:buf :      0.04s CPU      0.00s WALL (      80 calls)
     sum_band:ini :      0.96s CPU      0.02s WALL (      80 calls)

     Called by *egterg:
     cdiaghg      :      0.83s CPU      0.02s WALL (     217 calls)
     cegterg:over :      0.22s CPU      0.00s WALL (     137 calls)
     cegterg:upda :      1.80s CPU      0.04s WALL (     137 calls)
     cegterg:last :      0.14s CPU      0.00s WALL (     124 calls)
     h_psi        :     71.25s CPU      1.39s WALL (     225 calls)
     g_psi        :      1.30s CPU      0.03s WALL (     137 calls)

     Called by h_psi:
     h_psi:calbec :      0.32s CPU      0.01s WALL (     225 calls)
     vloc_psi     :     68.27s CPU      1.33s WALL (     225 calls)
     add_vuspsi   :      0.25s CPU      0.01s WALL (     225 calls)

     General routines
     calbec       :      0.18s CPU      0.00s WALL (     225 calls)
     fft          :      1.56s CPU      0.03s WALL (     109 calls)
     ffts         :      0.08s CPU      0.00s WALL (      10 calls)
     fftw         :     33.12s CPU      0.65s WALL (    2776 calls)
 
     Parallel routines
 
     PWSCF        :   1m46.28s CPU      2.14s WALL

 
   This run was terminated on:  11:46:57  17Jun2025            

=------------------------------------------------------------------------------=
   JOB DONE.
=------------------------------------------------------------------------------=
