
     Program PWSCF v.7.3.1 starts on 17Jun2025 at 11:46:59 

     This program is part of the open-source Quantum ESPRESSO suite
     for quantum simulation of materials; please cite
         "P. Giannozzi et al., J. Phys.:Condens. Matter 21 395502 (2009);
         "P. Giannozzi et al., J. Phys.:Condens. Matter 29 465901 (2017);
         "P. Giannozzi et al., J. Chem. Phys. 152 154105 (2020);
          URL http://www.quantum-espresso.org", 
     in publications or presentations arising from this work. More details at
     http://www.quantum-espresso.org/quote

     Parallel version (MPI & OpenMP), running on      96 processor cores
     Number of MPI processes:                 1
     Threads/MPI process:                    96

     MPI processes distributed on     1 nodes
     122073 MiB available memory on the printing compute node when the environment starts
 
     Waiting for input...
     Reading input from standard input

     Current dimensions of program PWSCF are:
     Max number of different atomic species (ntypx) = 10
     Max number of k-points (npk) =  40000
     Max angular momentum in pseudopotentials (lmaxx) =  4
 
     Subspace diagonalization in iterative solution of the eigenvalue problem:
     a serial algorithm will be used

 
     G-vector sticks info
     --------------------
     sticks:   dense  smooth     PW     G-vecs:    dense   smooth      PW
     Sum         925     925    269                37505    37505    6005
 
     Using Slab Decomposition
 


     bravais-lattice index     =           12
     lattice parameter (alat)  =       6.2832  a.u.
     unit-cell volume          =     387.6296 (a.u.)^3
     number of atoms/cell      =            1
     number of atomic types    =            1
     number of electrons       =         4.00
     number of Kohn-Sham states=            6
     kinetic-energy cutoff     =      80.0000  Ry
     charge density cutoff     =     320.0000  Ry
     scf convergence threshold =      1.0E-08
     mixing beta               =       0.7000
     number of iterations used =            8  plain     mixing
     Exchange-correlation= PBE
                           (   1   4   3   4   0   0   0)

     celldm(1)=   6.283185  celldm(2)=   1.300000  celldm(3)=   1.700000
     celldm(4)=   0.707107  celldm(5)=   0.000000  celldm(6)=   0.000000

     crystal axes: (cart. coord. in units of alat)
               a(1) = (   1.000000   0.000000   0.000000 )  
               a(2) = (   0.919239   0.919239   0.000000 )  
               a(3) = (   0.000000   0.000000   1.700000 )  

     reciprocal axes: (cart. coord. in units 2 pi/alat)
               b(1) = (  1.000000 -1.000000  0.000000 )  
               b(2) = (  0.000000  1.087857  0.000000 )  
               b(3) = (  0.000000  0.000000  0.588235 )  


     PseudoPot. # 1 for C  read from file:
     ./C_ONCV_PBE_sr.upf
     MD5 check sum: b68b6074392897e22e8b22f1bd7aa93e
     Pseudo is Norm-conserving, Zval =  4.0
     Generated using ONCVPSP code by D. R. Hamann
     Using radial grid of 1248 points,  4 beta functions with: 
                l(1) =   0
                l(2) =   0
                l(3) =   1
                l(4) =   1

     atomic species   valence    mass     pseudopotential
     C                 4.00    10.81100     C ( 1.00)

      4 Sym. Ops., with inversion, found


                                    s                        frac. trans.

      isym =  1     identity                                     

 cryst.   s( 1) = (     1          0          0      )
                  (     0          1          0      )
                  (     0          0          1      )

 cart.    s( 1) = (  1.0000000  0.0000000  0.0000000 )
                  (  0.0000000  1.0000000  0.0000000 )
                  (  0.0000000  0.0000000  1.0000000 )


      isym =  2     180 deg rotation - cart. axis [0,0,1]        

 cryst.   s( 2) = (    -1          0          0      )
                  (     0         -1          0      )
                  (     0          0          1      )

 cart.    s( 2) = ( -1.0000000  0.0000000  0.0000000 )
                  (  0.0000000 -1.0000000  0.0000000 )
                  (  0.0000000  0.0000000  1.0000000 )


      isym =  3     inversion                                    

 cryst.   s( 3) = (    -1          0          0      )
                  (     0         -1          0      )
                  (     0          0         -1      )

 cart.    s( 3) = ( -1.0000000  0.0000000  0.0000000 )
                  (  0.0000000 -1.0000000  0.0000000 )
                  (  0.0000000  0.0000000 -1.0000000 )


      isym =  4     inv. 180 deg rotation - cart. axis [0,0,1]   

 cryst.   s( 4) = (     1          0          0      )
                  (     0          1          0      )
                  (     0          0         -1      )

 cart.    s( 4) = (  1.0000000  0.0000000  0.0000000 )
                  (  0.0000000  1.0000000  0.0000000 )
                  (  0.0000000  0.0000000 -1.0000000 )


     point group C_2h (2/m) 
     there are  4 classes
     the character table:

       E     C2    i     s_h  
A_g    1.00  1.00  1.00  1.00
B_g    1.00 -1.00  1.00 -1.00
A_u    1.00  1.00 -1.00 -1.00
B_u    1.00 -1.00 -1.00  1.00

     the symmetry operations in each class and the name of the first element:

     E        1
          identity                                               
     C2       2
          180 deg rotation - cart. axis [0,0,1]                  
     i        3
          inversion                                              
     s_h      4
          inv. 180 deg rotation - cart. axis [0,0,1]             

   Cartesian axes

     site n.     atom                  positions (alat units)
         1        C      tau(   1) = (   0.0000000   0.0000000   0.0000000  )

   Crystallographic axes

     site n.     atom                  positions (cryst. coord.)
         1        C      tau(   1) = (  0.0000000  0.0000000  0.0000000  )

     number of k points=     8  Gaussian smearing, width (Ry)=  0.0050
                       cart. coord. in units 2pi/alat
        k(    1) = (   0.0000000   0.0000000   0.0000000), wk =   0.2500000
        k(    2) = (   0.0000000   0.0000000  -0.2941176), wk =   0.2500000
        k(    3) = (   0.0000000  -0.5439283   0.0000000), wk =   0.2500000
        k(    4) = (   0.0000000  -0.5439283  -0.2941176), wk =   0.2500000
        k(    5) = (  -0.5000000   0.5000000   0.0000000), wk =   0.2500000
        k(    6) = (  -0.5000000   0.5000000  -0.2941176), wk =   0.2500000
        k(    7) = (  -0.5000000  -0.0439283   0.0000000), wk =   0.2500000
        k(    8) = (  -0.5000000  -0.0439283  -0.2941176), wk =   0.2500000

                       cryst. coord.
        k(    1) = (   0.0000000   0.0000000   0.0000000), wk =   0.2500000
        k(    2) = (   0.0000000   0.0000000  -0.5000000), wk =   0.2500000
        k(    3) = (   0.0000000  -0.5000000   0.0000000), wk =   0.2500000
        k(    4) = (   0.0000000  -0.5000000  -0.5000000), wk =   0.2500000
        k(    5) = (  -0.5000000   0.0000000   0.0000000), wk =   0.2500000
        k(    6) = (  -0.5000000   0.0000000  -0.5000000), wk =   0.2500000
        k(    7) = (  -0.5000000  -0.5000000   0.0000000), wk =   0.2500000
        k(    8) = (  -0.5000000  -0.5000000  -0.5000000), wk =   0.2500000

     Dense  grid:    37505 G-vectors     FFT dimensions: (  36,  48,  64)

     Dynamical RAM for                 wfc:       0.43 MB

     Dynamical RAM for     wfc (w. buffer):       3.86 MB

     Dynamical RAM for           str. fact:       0.57 MB

     Dynamical RAM for           local pot:       0.00 MB

     Dynamical RAM for          nlocal pot:       0.57 MB

     Dynamical RAM for                qrad:       0.41 MB

     Dynamical RAM for          rho,v,vnew:       4.25 MB

     Dynamical RAM for               rhoin:       1.42 MB

     Dynamical RAM for            rho*nmix:       9.16 MB

     Dynamical RAM for           G-vectors:       2.43 MB

     Dynamical RAM for          h,s,v(r/c):       0.01 MB

     Dynamical RAM for          <psi|beta>:       0.00 MB

     Dynamical RAM for                 psi:       0.86 MB

     Dynamical RAM for                hpsi:       0.86 MB

     Dynamical RAM for      wfcinit/wfcrot:       0.86 MB

     Estimated static dynamical RAM per process >      18.87 MB

     Estimated max dynamical RAM per process >      29.75 MB

     Initial potential from superposition of free atoms

     starting charge       4.0000, renormalised to       4.0000
     Starting wfcs are    4 randomized atomic wfcs +    2 random wfcs

     total cpu time spent up to now is        0.3 secs

     Self-consistent Calculation

     iteration #  1     ecut=    80.00 Ry     beta= 0.70
     Davidson diagonalization with overlap

---- Real-time Memory Report at c_bands before calling an iterative solver
           183 MiB given to the printing process from OS
             0 MiB allocation reported by mallinfo(arena+hblkhd)
        121990 MiB available memory on the node where the printing process lives
------------------
     ethr =  1.00E-02,  avg # of iterations =  8.8

     Threshold (ethr) on eigenvalues was too large:
     Diagonalizing with lowered threshold

     Davidson diagonalization with overlap

---- Real-time Memory Report at c_bands before calling an iterative solver
           183 MiB given to the printing process from OS
             0 MiB allocation reported by mallinfo(arena+hblkhd)
        122000 MiB available memory on the node where the printing process lives
------------------
     ethr =  5.74E-04,  avg # of iterations =  1.1

     total cpu time spent up to now is        1.4 secs

     total energy              =     -10.87363838 Ry
     estimated scf accuracy    <       0.02261710 Ry

     iteration #  2     ecut=    80.00 Ry     beta= 0.70
     Davidson diagonalization with overlap

---- Real-time Memory Report at c_bands before calling an iterative solver
           204 MiB given to the printing process from OS
             0 MiB allocation reported by mallinfo(arena+hblkhd)
        121969 MiB available memory on the node where the printing process lives
------------------
     ethr =  5.65E-04,  avg # of iterations =  1.2

     total cpu time spent up to now is        1.9 secs

     total energy              =     -10.87584937 Ry
     estimated scf accuracy    <       0.00105733 Ry

     iteration #  3     ecut=    80.00 Ry     beta= 0.70
     Davidson diagonalization with overlap

---- Real-time Memory Report at c_bands before calling an iterative solver
           209 MiB given to the printing process from OS
             0 MiB allocation reported by mallinfo(arena+hblkhd)
        121970 MiB available memory on the node where the printing process lives
------------------
     ethr =  2.64E-05,  avg # of iterations =  4.5

     total cpu time spent up to now is        2.7 secs

     total energy              =     -10.87599752 Ry
     estimated scf accuracy    <       0.00006277 Ry

     iteration #  4     ecut=    80.00 Ry     beta= 0.70
     Davidson diagonalization with overlap

---- Real-time Memory Report at c_bands before calling an iterative solver
           209 MiB given to the printing process from OS
             0 MiB allocation reported by mallinfo(arena+hblkhd)
        121972 MiB available memory on the node where the printing process lives
------------------
     ethr =  1.57E-06,  avg # of iterations =  3.1

     total cpu time spent up to now is        3.3 secs

     total energy              =     -10.87600449 Ry
     estimated scf accuracy    <       0.00000132 Ry

     iteration #  5     ecut=    80.00 Ry     beta= 0.70
     Davidson diagonalization with overlap

---- Real-time Memory Report at c_bands before calling an iterative solver
           209 MiB given to the printing process from OS
             0 MiB allocation reported by mallinfo(arena+hblkhd)
        121962 MiB available memory on the node where the printing process lives
------------------
     ethr =  3.30E-08,  avg # of iterations =  1.9

     total cpu time spent up to now is        3.6 secs

     total energy              =     -10.87600479 Ry
     estimated scf accuracy    <       0.00000007 Ry

     iteration #  6     ecut=    80.00 Ry     beta= 0.70
     Davidson diagonalization with overlap

---- Real-time Memory Report at c_bands before calling an iterative solver
           214 MiB given to the printing process from OS
             0 MiB allocation reported by mallinfo(arena+hblkhd)
        121959 MiB available memory on the node where the printing process lives
------------------
     ethr =  1.82E-09,  avg # of iterations =  1.9

     total cpu time spent up to now is        4.0 secs

     End of self-consistent calculation

          k = 0.0000 0.0000 0.0000 (  4697 PWs)   bands (ev):

   -12.8430  -4.2206  -2.8056  -2.0614   1.2699   6.2927

     occupation numbers 
     1.0000   0.8698   0.0000   0.0000   0.0000   0.0000

          k = 0.0000 0.0000-0.2941 (  4682 PWs)   bands (ev):

   -12.8358  -4.3818  -2.8039  -2.0604   2.3494   4.0022

     occupation numbers 
     1.0000   1.0000   0.0000   0.0000   0.0000   0.0000

          k = 0.0000-0.5439 0.0000 (  4682 PWs)   bands (ev):

   -11.9743  -4.9910  -3.5323  -2.4672   5.0847   5.2505

     occupation numbers 
     1.0000   1.0000   0.0000   0.0000   0.0000   0.0000

          k = 0.0000-0.5439-0.2941 (  4656 PWs)   bands (ev):

   -11.9705  -4.9759  -3.5932  -2.4663   4.3874   5.9696

     occupation numbers 
     1.0000   1.0000   0.0000   0.0000   0.0000   0.0000

          k =-0.5000 0.5000 0.0000 (  4698 PWs)   bands (ev):

   -11.5270  -4.5074  -4.0967  -3.2197   5.2848   7.9231

     occupation numbers 
     1.0000   1.0000   0.0734   0.0000   0.0000   0.0000

          k =-0.5000 0.5000-0.2941 (  4696 PWs)   bands (ev):

   -11.5245  -4.4995  -4.0904  -3.2528   5.6374   6.7802

     occupation numbers 
     1.0000   1.0000   0.0568   0.0000   0.0000   0.0000

          k =-0.5000-0.0439 0.0000 (  4702 PWs)   bands (ev):

   -12.2890  -4.9673  -3.7462  -1.9217   4.5617   4.7249

     occupation numbers 
     1.0000   1.0000   0.0000   0.0000   0.0000   0.0000

          k =-0.5000-0.0439-0.2941 (  4692 PWs)   bands (ev):

   -12.2848  -4.9492  -3.8188  -1.9210   3.8931   5.4641

     occupation numbers 
     1.0000   1.0000   0.0000   0.0000   0.0000   0.0000

     the Fermi energy is    -4.1665 ev

!    total energy              =     -10.87600481 Ry
     estimated scf accuracy    <          4.3E-09 Ry
     smearing contrib. (-TS)   =      -0.00041122 Ry
     internal energy E=F+TS    =     -10.87559358 Ry

     The total energy is F=E-TS. E is the sum of the following terms:
     one-electron contribution =      -6.47402008 Ry
     hartree contribution      =       3.79164123 Ry
     xc contribution           =      -2.77393462 Ry
     ewald contribution        =      -5.41928011 Ry

     convergence has been achieved in   6 iterations

     Writing all to output data dir sweeps/MCL_12/MCL_02.save/ :
     XML data file, charge density, pseudopotentials, collected wavefunctions
 
     init_run     :     12.19s CPU      0.29s WALL (       1 calls)
     electrons    :    255.71s CPU      3.70s WALL (       1 calls)

     Called by init_run:
     wfcinit      :      7.53s CPU      0.15s WALL (       1 calls)
     wfcinit:atom :      0.16s CPU      0.00s WALL (       8 calls)
     wfcinit:wfcr :      6.90s CPU      0.14s WALL (       8 calls)
     potinit      :      2.35s CPU      0.05s WALL (       1 calls)
     hinit0       :      2.29s CPU      0.07s WALL (       1 calls)

     Called by electrons:
     c_bands      :    195.06s CPU      2.87s WALL (       7 calls)
     sum_band     :     48.15s CPU      0.67s WALL (       7 calls)
     v_of_rho     :      9.34s CPU      0.13s WALL (       7 calls)
     v_h          :      1.31s CPU      0.02s WALL (       7 calls)
     v_xc         :      8.02s CPU      0.11s WALL (       7 calls)
     mix_rho      :      3.12s CPU      0.04s WALL (       7 calls)

     Called by c_bands:
     init_us_2    :      5.40s CPU      0.08s WALL (     120 calls)
     cegterg      :    190.28s CPU      2.80s WALL (      56 calls)

     Called by sum_band:
     sum_band:wei :      0.08s CPU      0.00s WALL (       7 calls)
     sum_band:loo :     42.82s CPU      0.59s WALL (       7 calls)
     sum_band:buf :      0.34s CPU      0.00s WALL (      56 calls)
     sum_band:ini :      2.42s CPU      0.03s WALL (      56 calls)

     Called by *egterg:
     cdiaghg      :      1.20s CPU      0.02s WALL (     228 calls)
     cegterg:over :      2.23s CPU      0.03s WALL (     180 calls)
     cegterg:upda :      5.02s CPU      0.08s WALL (     180 calls)
     cegterg:last :      1.78s CPU      0.03s WALL (     110 calls)
     h_psi        :    181.37s CPU      2.70s WALL (     244 calls)
     g_psi        :      1.61s CPU      0.03s WALL (     180 calls)

     Called by h_psi:
     h_psi:calbec :      2.10s CPU      0.03s WALL (     244 calls)
     vloc_psi     :    175.20s CPU      2.60s WALL (     244 calls)
     add_vuspsi   :      1.51s CPU      0.02s WALL (     244 calls)

     General routines
     calbec       :      1.86s CPU      0.03s WALL (     244 calls)
     fft          :      4.34s CPU      0.07s WALL (      70 calls)
     ffts         :      0.41s CPU      0.01s WALL (       7 calls)
     fftw         :    146.68s CPU      2.13s WALL (    2134 calls)
 
     Parallel routines
 
     PWSCF        :   4m30.43s CPU      4.04s WALL

 
   This run was terminated on:  11:47: 3  17Jun2025            

=------------------------------------------------------------------------------=
   JOB DONE.
=------------------------------------------------------------------------------=
