
     Program PWSCF v.7.3.1 starts on 17Jun2025 at 11:42:24 

     This program is part of the open-source Quantum ESPRESSO suite
     for quantum simulation of materials; please cite
         "P. Giannozzi et al., J. Phys.:Condens. Matter 21 395502 (2009);
         "P. Giannozzi et al., J. Phys.:Condens. Matter 29 465901 (2017);
         "P. Giannozzi et al., J. Chem. Phys. 152 154105 (2020);
          URL http://www.quantum-espresso.org", 
     in publications or presentations arising from this work. More details at
     http://www.quantum-espresso.org/quote

     Parallel version (MPI & OpenMP), running on      96 processor cores
     Number of MPI processes:                 1
     Threads/MPI process:                    96

     MPI processes distributed on     1 nodes
     122352 MiB available memory on the printing compute node when the environment starts
 
     Waiting for input...
     Reading input from standard input
Warning: card &IONS ignored
Warning: card     ION_DYNAMICS = 'BFGS' ignored
Warning: card /&END ignored

     Current dimensions of program PWSCF are:
     Max number of different atomic species (ntypx) = 10
     Max number of k-points (npk) =  40000
     Max angular momentum in pseudopotentials (lmaxx) =  4

     Atomic positions and unit cell read from directory:
     sweeps/RHL2_5/RHL2_01.save/
 
 
     Subspace diagonalization in iterative solution of the eigenvalue problem:
     a serial algorithm will be used

 
     G-vector sticks info
     --------------------
     sticks:   dense  smooth     PW     G-vecs:    dense   smooth      PW
     Sum         243     243     87                 2871     2871     593
 
     Using Slab Decomposition
 


     bravais-lattice index     =            5
     lattice parameter (alat)  =       3.1416  a.u.
     unit-cell volume          =      29.7228 (a.u.)^3
     number of atoms/cell      =            1
     number of atomic types    =            1
     number of electrons       =         4.00
     number of Kohn-Sham states=            6
     kinetic-energy cutoff     =      80.0000  Ry
     charge density cutoff     =     320.0000  Ry
     Exchange-correlation= PBE
                           (   1   4   3   4   0   0   0)

     celldm(1)=   3.141593  celldm(2)=   0.000000  celldm(3)=   0.000000
     celldm(4)=  -0.156434  celldm(5)=   0.000000  celldm(6)=   0.000000

     crystal axes: (cart. coord. in units of alat)
               a(1) = (   0.760406  -0.439021   0.478585 )  
               a(2) = (   0.000000   0.878041   0.478585 )  
               a(3) = (  -0.760406  -0.439021   0.478585 )  

     reciprocal axes: (cart. coord. in units 2 pi/alat)
               b(1) = (  0.657543 -0.379633  0.696498 )  
               b(2) = (  0.000000  0.759266  0.696498 )  
               b(3) = ( -0.657543 -0.379633  0.696498 )  


     PseudoPot. # 1 for C  read from file:
     ./C_ONCV_PBE_sr.upf
     MD5 check sum: b68b6074392897e22e8b22f1bd7aa93e
     Pseudo is Norm-conserving, Zval =  4.0
     Generated using ONCVPSP code by D. R. Hamann
     Using radial grid of 1248 points,  4 beta functions with: 
                l(1) =   0
                l(2) =   0
                l(3) =   1
                l(4) =   1

     atomic species   valence    mass     pseudopotential
     C                 4.00    10.81100     C ( 1.00)

     12 Sym. Ops., with inversion, found


                                    s                        frac. trans.

      isym =  1     identity                                     

 cryst.   s( 1) = (     1          0          0      )
                  (     0          1          0      )
                  (     0          0          1      )

 cart.    s( 1) = (  1.0000000  0.0000000  0.0000000 )
                  (  0.0000000  1.0000000  0.0000000 )
                  (  0.0000000  0.0000000  1.0000000 )


      isym =  2     180 deg rotation - cart. axis [1,0,0]        

 cryst.   s( 2) = (     0          0         -1      )
                  (     0         -1          0      )
                  (    -1          0          0      )

 cart.    s( 2) = (  1.0000000  0.0000000  0.0000000 )
                  (  0.0000000 -1.0000000 -0.0000000 )
                  (  0.0000000  0.0000000 -1.0000000 )


      isym =  3     120 deg rotation - cryst. axis [0,0,1]       

 cryst.   s( 3) = (     0          1          0      )
                  (     0          0          1      )
                  (     1          0          0      )

 cart.    s( 3) = ( -0.5000000 -0.8660254 -0.0000000 )
                  (  0.8660254 -0.5000000 -0.0000000 )
                  (  0.0000000  0.0000000  1.0000000 )


      isym =  4     120 deg rotation - cryst. axis [0,0,-1]      

 cryst.   s( 4) = (     0          0          1      )
                  (     1          0          0      )
                  (     0          1          0      )

 cart.    s( 4) = ( -0.5000000  0.8660254  0.0000000 )
                  ( -0.8660254 -0.5000000 -0.0000000 )
                  (  0.0000000  0.0000000  1.0000000 )


      isym =  5     180 deg rotation - cryst. axis [0,1,0]       

 cryst.   s( 5) = (     0         -1          0      )
                  (    -1          0          0      )
                  (     0          0         -1      )

 cart.    s( 5) = ( -0.5000000 -0.8660254 -0.0000000 )
                  ( -0.8660254  0.5000000  0.0000000 )
                  (  0.0000000  0.0000000 -1.0000000 )


      isym =  6     180 deg rotation - cryst. axis [1,1,0]       

 cryst.   s( 6) = (    -1          0          0      )
                  (     0          0         -1      )
                  (     0         -1          0      )

 cart.    s( 6) = ( -0.5000000  0.8660254  0.0000000 )
                  (  0.8660254  0.5000000  0.0000000 )
                  (  0.0000000  0.0000000 -1.0000000 )


      isym =  7     inversion                                    

 cryst.   s( 7) = (    -1          0          0      )
                  (     0         -1          0      )
                  (     0          0         -1      )

 cart.    s( 7) = ( -1.0000000  0.0000000  0.0000000 )
                  (  0.0000000 -1.0000000 -0.0000000 )
                  (  0.0000000  0.0000000 -1.0000000 )


      isym =  8     inv. 180 deg rotation - cart. axis [1,0,0]   

 cryst.   s( 8) = (     0          0          1      )
                  (     0          1          0      )
                  (     1          0          0      )

 cart.    s( 8) = ( -1.0000000  0.0000000  0.0000000 )
                  (  0.0000000  1.0000000  0.0000000 )
                  (  0.0000000  0.0000000  1.0000000 )


      isym =  9     inv. 120 deg rotation - cryst. axis [0,0,1]  

 cryst.   s( 9) = (     0         -1          0      )
                  (     0          0         -1      )
                  (    -1          0          0      )

 cart.    s( 9) = (  0.5000000  0.8660254  0.0000000 )
                  ( -0.8660254  0.5000000  0.0000000 )
                  (  0.0000000  0.0000000 -1.0000000 )


      isym = 10     inv. 120 deg rotation - cryst. axis [0,0,-1] 

 cryst.   s(10) = (     0          0         -1      )
                  (    -1          0          0      )
                  (     0         -1          0      )

 cart.    s(10) = (  0.5000000 -0.8660254 -0.0000000 )
                  (  0.8660254  0.5000000  0.0000000 )
                  (  0.0000000  0.0000000 -1.0000000 )


      isym = 11     inv. 180 deg rotation - cryst. axis [0,1,0]  

 cryst.   s(11) = (     0          1          0      )
                  (     1          0          0      )
                  (     0          0          1      )

 cart.    s(11) = (  0.5000000  0.8660254  0.0000000 )
                  (  0.8660254 -0.5000000 -0.0000000 )
                  (  0.0000000  0.0000000  1.0000000 )


      isym = 12     inv. 180 deg rotation - cryst. axis [1,1,0]  

 cryst.   s(12) = (     1          0          0      )
                  (     0          0          1      )
                  (     0          1          0      )

 cart.    s(12) = (  0.5000000 -0.8660254 -0.0000000 )
                  ( -0.8660254 -0.5000000 -0.0000000 )
                  (  0.0000000  0.0000000  1.0000000 )


     point group D_3d (-3m) 
     there are  6 classes
     the character table:

       E     2C3   3C2'  i     2S6   3s_d 
A_1g   1.00  1.00  1.00  1.00  1.00  1.00
A_2g   1.00  1.00 -1.00  1.00  1.00 -1.00
E_g    2.00 -1.00  0.00  2.00 -1.00  0.00
A_1u   1.00  1.00  1.00 -1.00 -1.00 -1.00
A_2u   1.00  1.00 -1.00 -1.00 -1.00  1.00
E_u    2.00 -1.00  0.00 -2.00  1.00  0.00

     the symmetry operations in each class and the name of the first element:

     E        1
          identity                                               
     2C3      3    4
          120 deg rotation - cryst. axis [0,0,1]                 
     3C2'     2    5    6
          180 deg rotation - cart. axis [1,0,0]                  
     i        7
          inversion                                              
     2S6      9   10
          inv. 120 deg rotation - cryst. axis [0,0,1]            
     3s_d     8   11   12
          inv. 180 deg rotation - cart. axis [1,0,0]             

   Cartesian axes

     site n.     atom                  positions (alat units)
         1        C      tau(   1) = (   0.0000000   0.0000000   0.0000000  )

   Crystallographic axes

     site n.     atom                  positions (cryst. coord.)
         1        C      tau(   1) = (  0.0000000  0.0000000  0.0000000  )

     number of k points=     7  Gaussian smearing, width (Ry)=  0.0050
                       cart. coord. in units 2pi/alat
        k(    1) = (   0.3287717   0.5694494   0.0000000), wk =   0.2857143
        k(    2) = (  -0.0000000   0.3796329   0.3482488), wk =   0.2857143
        k(    3) = (   0.6575435   0.3796329   0.2069227), wk =   0.2857143
        k(    4) = (   0.0000000   0.7592658  -0.2069227), wk =   0.2857143
        k(    5) = (   0.0000000   0.0000000   0.7620942), wk =   0.2857143
        k(    6) = (  -0.0000000   0.7592658  -0.0655966), wk =   0.2857143
        k(    7) = (   0.6575435   0.3796329   0.3482488), wk =   0.2857143

                       cryst. coord.
        k(    1) = (   0.0000000   0.5000000  -0.5000000), wk =   0.2857143
        k(    2) = (   0.0000000   0.5000000   0.0000000), wk =   0.2857143
        k(    3) = (   0.4323635   0.4323635  -0.5676365), wk =   0.2857143
        k(    4) = (  -0.4323635   0.5676365  -0.4323635), wk =   0.2857143
        k(    5) = (   0.3647269   0.3647269   0.3647269), wk =   0.2857143
        k(    6) = (  -0.3647269   0.6352731  -0.3647269), wk =   0.2857143
        k(    7) = (   0.5000000   0.5000000  -0.5000000), wk =   0.2857143

     Dense  grid:     2871 G-vectors     FFT dimensions: (  18,  18,  18)

     Dynamical RAM for                 wfc:       0.03 MB

     Dynamical RAM for     wfc (w. buffer):       0.03 MB

     Dynamical RAM for           str. fact:       0.04 MB

     Dynamical RAM for           local pot:       0.00 MB

     Dynamical RAM for          nlocal pot:       0.04 MB

     Dynamical RAM for                qrad:       0.41 MB

     Dynamical RAM for          rho,v,vnew:       0.26 MB

     Dynamical RAM for           G-vectors:       0.19 MB

     Dynamical RAM for          h,s,v(r/c):       0.01 MB

     Dynamical RAM for          <psi|beta>:       0.00 MB

     Dynamical RAM for                 psi:       0.07 MB

     Dynamical RAM for                hpsi:       0.07 MB

     Dynamical RAM for      wfcinit/wfcrot:       0.07 MB

     Estimated static dynamical RAM per process >       1.29 MB

     Estimated max dynamical RAM per process >       1.43 MB

     The potential is recalculated from file :
     sweeps/RHL2_5/RHL2_01.save/charge-density

     Starting wfcs are    4 randomized atomic wfcs +    2 random wfcs

     Band Structure Calculation
     Davidson diagonalization with overlap

     Computing kpt #:     1  of     7
     total cpu time spent up to now is        0.3 secs

     Computing kpt #:     2  of     7
     total cpu time spent up to now is        0.5 secs

     Computing kpt #:     3  of     7
     total cpu time spent up to now is        0.7 secs

     Computing kpt #:     4  of     7
     total cpu time spent up to now is        0.8 secs

     Computing kpt #:     5  of     7
     total cpu time spent up to now is        1.0 secs

     Computing kpt #:     6  of     7
     total cpu time spent up to now is        1.2 secs

     Computing kpt #:     7  of     7
     total cpu time spent up to now is        1.3 secs

     ethr =  2.50E-10,  avg # of iterations = 20.3

     total cpu time spent up to now is        1.3 secs

     End of band structure calculation

          k = 0.3288 0.5694 0.0000 (   350 PWs)   bands (ev):

    10.0124  17.3593  17.6726  30.9877  38.8184  64.9151

          k =-0.0000 0.3796 0.3482 (   364 PWs)   bands (ev):

     5.3878   7.0218  34.6311  36.7831  53.1318  58.9856

          k = 0.6575 0.3796 0.2069 (   352 PWs)   bands (ev):

    17.0589  17.0589  22.2365  30.9952  37.2217  37.2217

          k = 0.0000 0.7593-0.2069 (   352 PWs)   bands (ev):

    17.0589  17.0589  22.2365  30.9952  37.2217  37.2217

          k = 0.0000 0.0000 0.7621 (   346 PWs)   bands (ev):

    16.5471  16.5471  17.9917  28.2524  42.8306  43.8656

          k =-0.0000 0.7593-0.0656 (   346 PWs)   bands (ev):

    16.5471  16.5471  17.9917  28.2524  42.8306  43.8656

          k = 0.6575 0.3796 0.3482 (   346 PWs)   bands (ev):

    17.5628  17.5628  23.2691  31.8863  34.6578  34.6578

     Writing all to output data dir sweeps/RHL2_5/RHL2_01.save/ :
     XML data file, pseudopotentials, collected wavefunctions
 
     init_run     :      2.43s CPU      0.08s WALL (       1 calls)
     electrons    :     58.22s CPU      1.20s WALL (       1 calls)

     Called by init_run:
     wfcinit      :      0.03s CPU      0.00s WALL (       1 calls)
     wfcinit:atom :      0.11s CPU      0.00s WALL (       7 calls)
     wfcinit:wfcr :      3.40s CPU      0.07s WALL (       7 calls)
     potinit      :      0.21s CPU      0.00s WALL (       1 calls)
     hinit0       :      2.18s CPU      0.07s WALL (       1 calls)

     Called by electrons:
     c_bands      :     58.21s CPU      1.20s WALL (       1 calls)
     v_of_rho     :      0.18s CPU      0.00s WALL (       1 calls)
     v_h          :      0.06s CPU      0.00s WALL (       1 calls)
     v_xc         :      0.12s CPU      0.00s WALL (       1 calls)

     Called by c_bands:
     init_us_2    :      0.38s CPU      0.01s WALL (       7 calls)
     cegterg      :     53.65s CPU      1.10s WALL (      10 calls)

     Called by sum_band:

     Called by *egterg:
     cdiaghg      :      0.57s CPU      0.01s WALL (     149 calls)
     cegterg:over :      0.19s CPU      0.00s WALL (     142 calls)
     cegterg:upda :      6.22s CPU      0.13s WALL (     142 calls)
     cegterg:last :      0.13s CPU      0.00s WALL (      84 calls)
     h_psi        :     46.21s CPU      0.95s WALL (     159 calls)
     g_psi        :      1.75s CPU      0.04s WALL (     142 calls)

     Called by h_psi:
     h_psi:calbec :      0.22s CPU      0.00s WALL (     159 calls)
     vloc_psi     :     43.64s CPU      0.90s WALL (     159 calls)
     add_vuspsi   :      0.18s CPU      0.00s WALL (     159 calls)

     General routines
     calbec       :      0.14s CPU      0.00s WALL (     159 calls)
     fft          :      0.79s CPU      0.02s WALL (      10 calls)
     fftw         :      6.66s CPU      0.14s WALL (    1154 calls)
     davcio       :      0.02s CPU      0.00s WALL (      14 calls)
 
     Parallel routines
 
     PWSCF        :   1m 2.23s CPU      1.34s WALL

 
   This run was terminated on:  11:42:26  17Jun2025            

=------------------------------------------------------------------------------=
   JOB DONE.
=------------------------------------------------------------------------------=
