
     Program PWSCF v.7.3.1 starts on 17Jun2025 at 11:42:31 

     This program is part of the open-source Quantum ESPRESSO suite
     for quantum simulation of materials; please cite
         "P. Giannozzi et al., J. Phys.:Condens. Matter 21 395502 (2009);
         "P. Giannozzi et al., J. Phys.:Condens. Matter 29 465901 (2017);
         "P. Giannozzi et al., J. Chem. Phys. 152 154105 (2020);
          URL http://www.quantum-espresso.org", 
     in publications or presentations arising from this work. More details at
     http://www.quantum-espresso.org/quote

     Parallel version (MPI & OpenMP), running on      96 processor cores
     Number of MPI processes:                 1
     Threads/MPI process:                    96

     MPI processes distributed on     1 nodes
     122344 MiB available memory on the printing compute node when the environment starts
 
     Waiting for input...
     Reading input from standard input
Warning: card &IONS ignored
Warning: card     ION_DYNAMICS = 'BFGS' ignored
Warning: card /&END ignored

     Current dimensions of program PWSCF are:
     Max number of different atomic species (ntypx) = 10
     Max number of k-points (npk) =  40000
     Max angular momentum in pseudopotentials (lmaxx) =  4

     Atomic positions and unit cell read from directory:
     sweeps/RHL2_5/RHL2_03.save/
 
 
     Subspace diagonalization in iterative solution of the eigenvalue problem:
     a serial algorithm will be used

 
     G-vector sticks info
     --------------------
     sticks:   dense  smooth     PW     G-vecs:    dense   smooth      PW
     Sum        2009    2009    591                35691    35691    5717
 
     Using Slab Decomposition
 


     bravais-lattice index     =            5
     lattice parameter (alat)  =       9.4248  a.u.
     unit-cell volume          =     369.2442 (a.u.)^3
     number of atoms/cell      =            1
     number of atomic types    =            1
     number of electrons       =         4.00
     number of Kohn-Sham states=            6
     kinetic-energy cutoff     =      80.0000  Ry
     charge density cutoff     =     320.0000  Ry
     Exchange-correlation= PBE
                           (   1   4   3   4   0   0   0)

     celldm(1)=   9.424778  celldm(2)=   0.000000  celldm(3)=   0.000000
     celldm(4)=  -0.453990  celldm(5)=   0.000000  celldm(6)=   0.000000

     crystal axes: (cart. coord. in units of alat)
               a(1) = (   0.852640  -0.492272   0.175137 )  
               a(2) = (   0.000000   0.984544   0.175137 )  
               a(3) = (  -0.852640  -0.492272   0.175137 )  

     reciprocal axes: (cart. coord. in units 2 pi/alat)
               b(1) = (  0.586414 -0.338566  1.903271 )  
               b(2) = (  0.000000  0.677132  1.903271 )  
               b(3) = ( -0.586414 -0.338566  1.903271 )  


     PseudoPot. # 1 for C  read from file:
     ./C_ONCV_PBE_sr.upf
     MD5 check sum: b68b6074392897e22e8b22f1bd7aa93e
     Pseudo is Norm-conserving, Zval =  4.0
     Generated using ONCVPSP code by D. R. Hamann
     Using radial grid of 1248 points,  4 beta functions with: 
                l(1) =   0
                l(2) =   0
                l(3) =   1
                l(4) =   1

     atomic species   valence    mass     pseudopotential
     C                 4.00    10.81100     C ( 1.00)

     12 Sym. Ops., with inversion, found


                                    s                        frac. trans.

      isym =  1     identity                                     

 cryst.   s( 1) = (     1          0          0      )
                  (     0          1          0      )
                  (     0          0          1      )

 cart.    s( 1) = (  1.0000000  0.0000000  0.0000000 )
                  (  0.0000000  1.0000000  0.0000000 )
                  (  0.0000000  0.0000000  1.0000000 )


      isym =  2     180 deg rotation - cart. axis [1,0,0]        

 cryst.   s( 2) = (     0          0         -1      )
                  (     0         -1          0      )
                  (    -1          0          0      )

 cart.    s( 2) = (  1.0000000  0.0000000  0.0000000 )
                  (  0.0000000 -1.0000000  0.0000000 )
                  (  0.0000000  0.0000000 -1.0000000 )


      isym =  3     120 deg rotation - cryst. axis [0,0,1]       

 cryst.   s( 3) = (     0          1          0      )
                  (     0          0          1      )
                  (     1          0          0      )

 cart.    s( 3) = ( -0.5000000 -0.8660254 -0.0000000 )
                  (  0.8660254 -0.5000000 -0.0000000 )
                  (  0.0000000  0.0000000  1.0000000 )


      isym =  4     120 deg rotation - cryst. axis [0,0,-1]      

 cryst.   s( 4) = (     0          0          1      )
                  (     1          0          0      )
                  (     0          1          0      )

 cart.    s( 4) = ( -0.5000000  0.8660254  0.0000000 )
                  ( -0.8660254 -0.5000000 -0.0000000 )
                  (  0.0000000  0.0000000  1.0000000 )


      isym =  5     180 deg rotation - cryst. axis [0,1,0]       

 cryst.   s( 5) = (     0         -1          0      )
                  (    -1          0          0      )
                  (     0          0         -1      )

 cart.    s( 5) = ( -0.5000000 -0.8660254 -0.0000000 )
                  ( -0.8660254  0.5000000  0.0000000 )
                  (  0.0000000  0.0000000 -1.0000000 )


      isym =  6     180 deg rotation - cryst. axis [1,1,0]       

 cryst.   s( 6) = (    -1          0          0      )
                  (     0          0         -1      )
                  (     0         -1          0      )

 cart.    s( 6) = ( -0.5000000  0.8660254  0.0000000 )
                  (  0.8660254  0.5000000  0.0000000 )
                  (  0.0000000  0.0000000 -1.0000000 )


      isym =  7     inversion                                    

 cryst.   s( 7) = (    -1          0          0      )
                  (     0         -1          0      )
                  (     0          0         -1      )

 cart.    s( 7) = ( -1.0000000  0.0000000  0.0000000 )
                  (  0.0000000 -1.0000000  0.0000000 )
                  (  0.0000000  0.0000000 -1.0000000 )


      isym =  8     inv. 180 deg rotation - cart. axis [1,0,0]   

 cryst.   s( 8) = (     0          0          1      )
                  (     0          1          0      )
                  (     1          0          0      )

 cart.    s( 8) = ( -1.0000000  0.0000000  0.0000000 )
                  (  0.0000000  1.0000000  0.0000000 )
                  (  0.0000000  0.0000000  1.0000000 )


      isym =  9     inv. 120 deg rotation - cryst. axis [0,0,1]  

 cryst.   s( 9) = (     0         -1          0      )
                  (     0          0         -1      )
                  (    -1          0          0      )

 cart.    s( 9) = (  0.5000000  0.8660254  0.0000000 )
                  ( -0.8660254  0.5000000  0.0000000 )
                  (  0.0000000  0.0000000 -1.0000000 )


      isym = 10     inv. 120 deg rotation - cryst. axis [0,0,-1] 

 cryst.   s(10) = (     0          0         -1      )
                  (    -1          0          0      )
                  (     0         -1          0      )

 cart.    s(10) = (  0.5000000 -0.8660254 -0.0000000 )
                  (  0.8660254  0.5000000  0.0000000 )
                  (  0.0000000  0.0000000 -1.0000000 )


      isym = 11     inv. 180 deg rotation - cryst. axis [0,1,0]  

 cryst.   s(11) = (     0          1          0      )
                  (     1          0          0      )
                  (     0          0          1      )

 cart.    s(11) = (  0.5000000  0.8660254  0.0000000 )
                  (  0.8660254 -0.5000000 -0.0000000 )
                  (  0.0000000  0.0000000  1.0000000 )


      isym = 12     inv. 180 deg rotation - cryst. axis [1,1,0]  

 cryst.   s(12) = (     1          0          0      )
                  (     0          0          1      )
                  (     0          1          0      )

 cart.    s(12) = (  0.5000000 -0.8660254 -0.0000000 )
                  ( -0.8660254 -0.5000000 -0.0000000 )
                  (  0.0000000  0.0000000  1.0000000 )


     point group D_3d (-3m) 
     there are  6 classes
     the character table:

       E     2C3   3C2'  i     2S6   3s_d 
A_1g   1.00  1.00  1.00  1.00  1.00  1.00
A_2g   1.00  1.00 -1.00  1.00  1.00 -1.00
E_g    2.00 -1.00  0.00  2.00 -1.00  0.00
A_1u   1.00  1.00  1.00 -1.00 -1.00 -1.00
A_2u   1.00  1.00 -1.00 -1.00 -1.00  1.00
E_u    2.00 -1.00  0.00 -2.00  1.00  0.00

     the symmetry operations in each class and the name of the first element:

     E        1
          identity                                               
     2C3      3    4
          120 deg rotation - cryst. axis [0,0,1]                 
     3C2'     2    5    6
          180 deg rotation - cart. axis [1,0,0]                  
     i        7
          inversion                                              
     2S6      9   10
          inv. 120 deg rotation - cryst. axis [0,0,1]            
     3s_d     8   11   12
          inv. 180 deg rotation - cart. axis [1,0,0]             

   Cartesian axes

     site n.     atom                  positions (alat units)
         1        C      tau(   1) = (   0.0000000   0.0000000   0.0000000  )

   Crystallographic axes

     site n.     atom                  positions (cryst. coord.)
         1        C      tau(   1) = (  0.0000000  0.0000000  0.0000000  )

     number of k points=     7  Gaussian smearing, width (Ry)=  0.0050
                       cart. coord. in units 2pi/alat
        k(    1) = (   0.2932069   0.5078493   0.0000000), wk =   0.2857143
        k(    2) = (   0.0000000   0.3385662   0.9516355), wk =   0.2857143
        k(    3) = (   0.5864138   0.3385662   0.0602264), wk =   0.2857143
        k(    4) = (   0.0000000   0.6771324  -0.0602264), wk =   0.2857143
        k(    5) = (  -0.0000000   0.0000000   1.0720882), wk =   0.2857143
        k(    6) = (  -0.0000000   0.6771324   0.8311828), wk =   0.2857143
        k(    7) = (   0.5864138   0.3385662   0.9516355), wk =   0.2857143

                       cryst. coord.
        k(    1) = (  -0.0000000   0.5000000  -0.5000000), wk =   0.2857143
        k(    2) = (   0.0000000   0.5000000   0.0000000), wk =   0.2857143
        k(    3) = (   0.3438812   0.3438812  -0.6561188), wk =   0.2857143
        k(    4) = (  -0.3438812   0.6561188  -0.3438812), wk =   0.2857143
        k(    5) = (   0.1877624   0.1877624   0.1877624), wk =   0.2857143
        k(    6) = (  -0.1877624   0.8122376  -0.1877624), wk =   0.2857143
        k(    7) = (   0.5000000   0.5000000  -0.5000000), wk =   0.2857143

     Dense  grid:    35691 G-vectors     FFT dimensions: (  54,  54,  54)

     Dynamical RAM for                 wfc:       0.41 MB

     Dynamical RAM for     wfc (w. buffer):       0.41 MB

     Dynamical RAM for           str. fact:       0.54 MB

     Dynamical RAM for           local pot:       0.00 MB

     Dynamical RAM for          nlocal pot:       0.54 MB

     Dynamical RAM for                qrad:       0.41 MB

     Dynamical RAM for          rho,v,vnew:       5.24 MB

     Dynamical RAM for           G-vectors:       2.31 MB

     Dynamical RAM for          h,s,v(r/c):       0.01 MB

     Dynamical RAM for          <psi|beta>:       0.00 MB

     Dynamical RAM for                 psi:       0.82 MB

     Dynamical RAM for                hpsi:       0.82 MB

     Dynamical RAM for      wfcinit/wfcrot:       0.82 MB

     Estimated static dynamical RAM per process >      16.56 MB

     Estimated max dynamical RAM per process >      18.20 MB

     The potential is recalculated from file :
     sweeps/RHL2_5/RHL2_03.save/charge-density

     Starting wfcs are    4 randomized atomic wfcs +    2 random wfcs

     Band Structure Calculation
     Davidson diagonalization with overlap

     Computing kpt #:     1  of     7
     total cpu time spent up to now is        1.3 secs

     Computing kpt #:     2  of     7
     total cpu time spent up to now is        2.7 secs

     Computing kpt #:     3  of     7
     total cpu time spent up to now is        3.8 secs

     Computing kpt #:     4  of     7
     total cpu time spent up to now is        4.3 secs

     Computing kpt #:     5  of     7
     total cpu time spent up to now is        4.8 secs

     Computing kpt #:     6  of     7
     total cpu time spent up to now is        5.3 secs

     Computing kpt #:     7  of     7
     total cpu time spent up to now is        5.7 secs

     ethr =  2.50E-10,  avg # of iterations = 22.3

     total cpu time spent up to now is        5.7 secs

     End of band structure calculation

          k = 0.2932 0.5078 0.0000 (  4454 PWs)   bands (ev):

   -13.1992  -4.5377  -4.2011  -0.5282   3.3667   3.6032

          k = 0.0000 0.3386 0.9516 (  4492 PWs)   bands (ev):

   -11.1119  -5.9237  -2.9177  -2.8539   6.0813   7.2642

          k = 0.5864 0.3386 0.0602 (  4421 PWs)   bands (ev):

   -13.1795  -4.3941  -4.3941  -0.5875   3.7722   3.7722

          k = 0.0000 0.6771-0.0602 (  4421 PWs)   bands (ev):

   -13.1795  -4.3941  -4.3941  -0.5875   3.7722   3.7722

          k =-0.0000 0.0000 1.0721 (  4484 PWs)   bands (ev):

   -11.2409  -5.6967  -2.9761  -2.9761   6.4279   6.4279

          k =-0.0000 0.6771 0.8312 (  4484 PWs)   bands (ev):

   -11.2409  -5.6967  -2.9761  -2.9761   6.4279   6.4279

          k = 0.5864 0.3386 0.9516 (  4468 PWs)   bands (ev):

   -11.0988  -5.9000  -2.9361  -2.9361   6.4162   6.4162

     Writing all to output data dir sweeps/RHL2_5/RHL2_03.save/ :
     XML data file, pseudopotentials, collected wavefunctions
 
     init_run     :      5.90s CPU      0.17s WALL (       1 calls)
     electrons    :    382.10s CPU      5.56s WALL (       1 calls)

     Called by init_run:
     wfcinit      :      0.05s CPU      0.00s WALL (       1 calls)
     wfcinit:atom :      0.29s CPU      0.00s WALL (       7 calls)
     wfcinit:wfcr :     22.28s CPU      0.34s WALL (       7 calls)
     potinit      :      3.31s CPU      0.07s WALL (       1 calls)
     hinit0       :      2.52s CPU      0.08s WALL (       1 calls)

     Called by electrons:
     c_bands      :    382.09s CPU      5.56s WALL (       1 calls)
     v_of_rho     :      2.97s CPU      0.06s WALL (       1 calls)
     v_h          :      0.53s CPU      0.01s WALL (       1 calls)
     v_xc         :      2.44s CPU      0.05s WALL (       1 calls)

     Called by c_bands:
     init_us_2    :      0.63s CPU      0.01s WALL (       7 calls)
     cegterg      :    358.12s CPU      5.19s WALL (      11 calls)

     Called by sum_band:

     Called by *egterg:
     cdiaghg      :      1.13s CPU      0.01s WALL (     163 calls)
     cegterg:over :      2.25s CPU      0.03s WALL (     156 calls)
     cegterg:upda :      8.53s CPU      0.14s WALL (     156 calls)
     cegterg:last :      2.27s CPU      0.03s WALL (      97 calls)
     h_psi        :    361.88s CPU      5.26s WALL (     174 calls)
     g_psi        :      1.60s CPU      0.03s WALL (     156 calls)

     Called by h_psi:
     h_psi:calbec :      1.80s CPU      0.02s WALL (     174 calls)
     vloc_psi     :    356.92s CPU      5.19s WALL (     174 calls)
     add_vuspsi   :      1.17s CPU      0.02s WALL (     174 calls)

     General routines
     calbec       :      1.56s CPU      0.02s WALL (     174 calls)
     fft          :      2.12s CPU      0.05s WALL (      10 calls)
     fftw         :    212.30s CPU      2.76s WALL (    1294 calls)
     davcio       :      0.14s CPU      0.00s WALL (      14 calls)
 
     Parallel routines
 
     PWSCF        :   6m31.92s CPU      5.79s WALL

 
   This run was terminated on:  11:42:37  17Jun2025            

=------------------------------------------------------------------------------=
   JOB DONE.
=------------------------------------------------------------------------------=
