
     Program PWSCF v.7.3.1 starts on 17Jun2025 at 11:42:23 

     This program is part of the open-source Quantum ESPRESSO suite
     for quantum simulation of materials; please cite
         "P. Giannozzi et al., J. Phys.:Condens. Matter 21 395502 (2009);
         "P. Giannozzi et al., J. Phys.:Condens. Matter 29 465901 (2017);
         "P. Giannozzi et al., J. Chem. Phys. 152 154105 (2020);
          URL http://www.quantum-espresso.org", 
     in publications or presentations arising from this work. More details at
     http://www.quantum-espresso.org/quote

     Parallel version (MPI & OpenMP), running on      96 processor cores
     Number of MPI processes:                 1
     Threads/MPI process:                    96

     MPI processes distributed on     1 nodes
     122367 MiB available memory on the printing compute node when the environment starts
 
     Waiting for input...
     Reading input from standard input

     Current dimensions of program PWSCF are:
     Max number of different atomic species (ntypx) = 10
     Max number of k-points (npk) =  40000
     Max angular momentum in pseudopotentials (lmaxx) =  4
 
     Subspace diagonalization in iterative solution of the eigenvalue problem:
     a serial algorithm will be used

 
     G-vector sticks info
     --------------------
     sticks:   dense  smooth     PW     G-vecs:    dense   smooth      PW
     Sum         243     243     63                 2871     2871     383
 
     Using Slab Decomposition
 


     bravais-lattice index     =            5
     lattice parameter (alat)  =       3.1416  a.u.
     unit-cell volume          =      29.7228 (a.u.)^3
     number of atoms/cell      =            1
     number of atomic types    =            1
     number of electrons       =         4.00
     number of Kohn-Sham states=            6
     kinetic-energy cutoff     =      80.0000  Ry
     charge density cutoff     =     320.0000  Ry
     scf convergence threshold =      1.0E-08
     mixing beta               =       0.7000
     number of iterations used =            8  plain     mixing
     Exchange-correlation= PBE
                           (   1   4   3   4   0   0   0)

     celldm(1)=   3.141593  celldm(2)=   0.000000  celldm(3)=   0.000000
     celldm(4)=  -0.156434  celldm(5)=   0.000000  celldm(6)=   0.000000

     crystal axes: (cart. coord. in units of alat)
               a(1) = (   0.760406  -0.439021   0.478585 )  
               a(2) = (   0.000000   0.878041   0.478585 )  
               a(3) = (  -0.760406  -0.439021   0.478585 )  

     reciprocal axes: (cart. coord. in units 2 pi/alat)
               b(1) = (  0.657543 -0.379633  0.696498 )  
               b(2) = (  0.000000  0.759266  0.696498 )  
               b(3) = ( -0.657543 -0.379633  0.696498 )  


     PseudoPot. # 1 for C  read from file:
     ./C_ONCV_PBE_sr.upf
     MD5 check sum: b68b6074392897e22e8b22f1bd7aa93e
     Pseudo is Norm-conserving, Zval =  4.0
     Generated using ONCVPSP code by D. R. Hamann
     Using radial grid of 1248 points,  4 beta functions with: 
                l(1) =   0
                l(2) =   0
                l(3) =   1
                l(4) =   1

     atomic species   valence    mass     pseudopotential
     C                 4.00    10.81100     C ( 1.00)

     12 Sym. Ops., with inversion, found


                                    s                        frac. trans.

      isym =  1     identity                                     

 cryst.   s( 1) = (     1          0          0      )
                  (     0          1          0      )
                  (     0          0          1      )

 cart.    s( 1) = (  1.0000000  0.0000000  0.0000000 )
                  (  0.0000000  1.0000000  0.0000000 )
                  (  0.0000000  0.0000000  1.0000000 )


      isym =  2     180 deg rotation - cart. axis [1,0,0]        

 cryst.   s( 2) = (     0          0         -1      )
                  (     0         -1          0      )
                  (    -1          0          0      )

 cart.    s( 2) = (  1.0000000  0.0000000  0.0000000 )
                  (  0.0000000 -1.0000000 -0.0000000 )
                  (  0.0000000  0.0000000 -1.0000000 )


      isym =  3     120 deg rotation - cryst. axis [0,0,1]       

 cryst.   s( 3) = (     0          1          0      )
                  (     0          0          1      )
                  (     1          0          0      )

 cart.    s( 3) = ( -0.5000000 -0.8660254 -0.0000000 )
                  (  0.8660254 -0.5000000 -0.0000000 )
                  (  0.0000000  0.0000000  1.0000000 )


      isym =  4     120 deg rotation - cryst. axis [0,0,-1]      

 cryst.   s( 4) = (     0          0          1      )
                  (     1          0          0      )
                  (     0          1          0      )

 cart.    s( 4) = ( -0.5000000  0.8660254  0.0000000 )
                  ( -0.8660254 -0.5000000 -0.0000000 )
                  (  0.0000000  0.0000000  1.0000000 )


      isym =  5     180 deg rotation - cryst. axis [0,1,0]       

 cryst.   s( 5) = (     0         -1          0      )
                  (    -1          0          0      )
                  (     0          0         -1      )

 cart.    s( 5) = ( -0.5000000 -0.8660254 -0.0000000 )
                  ( -0.8660254  0.5000000  0.0000000 )
                  (  0.0000000  0.0000000 -1.0000000 )


      isym =  6     180 deg rotation - cryst. axis [1,1,0]       

 cryst.   s( 6) = (    -1          0          0      )
                  (     0          0         -1      )
                  (     0         -1          0      )

 cart.    s( 6) = ( -0.5000000  0.8660254  0.0000000 )
                  (  0.8660254  0.5000000  0.0000000 )
                  (  0.0000000  0.0000000 -1.0000000 )


      isym =  7     inversion                                    

 cryst.   s( 7) = (    -1          0          0      )
                  (     0         -1          0      )
                  (     0          0         -1      )

 cart.    s( 7) = ( -1.0000000  0.0000000  0.0000000 )
                  (  0.0000000 -1.0000000 -0.0000000 )
                  (  0.0000000  0.0000000 -1.0000000 )


      isym =  8     inv. 180 deg rotation - cart. axis [1,0,0]   

 cryst.   s( 8) = (     0          0          1      )
                  (     0          1          0      )
                  (     1          0          0      )

 cart.    s( 8) = ( -1.0000000  0.0000000  0.0000000 )
                  (  0.0000000  1.0000000  0.0000000 )
                  (  0.0000000  0.0000000  1.0000000 )


      isym =  9     inv. 120 deg rotation - cryst. axis [0,0,1]  

 cryst.   s( 9) = (     0         -1          0      )
                  (     0          0         -1      )
                  (    -1          0          0      )

 cart.    s( 9) = (  0.5000000  0.8660254  0.0000000 )
                  ( -0.8660254  0.5000000  0.0000000 )
                  (  0.0000000  0.0000000 -1.0000000 )


      isym = 10     inv. 120 deg rotation - cryst. axis [0,0,-1] 

 cryst.   s(10) = (     0          0         -1      )
                  (    -1          0          0      )
                  (     0         -1          0      )

 cart.    s(10) = (  0.5000000 -0.8660254 -0.0000000 )
                  (  0.8660254  0.5000000  0.0000000 )
                  (  0.0000000  0.0000000 -1.0000000 )


      isym = 11     inv. 180 deg rotation - cryst. axis [0,1,0]  

 cryst.   s(11) = (     0          1          0      )
                  (     1          0          0      )
                  (     0          0          1      )

 cart.    s(11) = (  0.5000000  0.8660254  0.0000000 )
                  (  0.8660254 -0.5000000 -0.0000000 )
                  (  0.0000000  0.0000000  1.0000000 )


      isym = 12     inv. 180 deg rotation - cryst. axis [1,1,0]  

 cryst.   s(12) = (     1          0          0      )
                  (     0          0          1      )
                  (     0          1          0      )

 cart.    s(12) = (  0.5000000 -0.8660254 -0.0000000 )
                  ( -0.8660254 -0.5000000 -0.0000000 )
                  (  0.0000000  0.0000000  1.0000000 )


     point group D_3d (-3m) 
     there are  6 classes
     the character table:

       E     2C3   3C2'  i     2S6   3s_d 
A_1g   1.00  1.00  1.00  1.00  1.00  1.00
A_2g   1.00  1.00 -1.00  1.00  1.00 -1.00
E_g    2.00 -1.00  0.00  2.00 -1.00  0.00
A_1u   1.00  1.00  1.00 -1.00 -1.00 -1.00
A_2u   1.00  1.00 -1.00 -1.00 -1.00  1.00
E_u    2.00 -1.00  0.00 -2.00  1.00  0.00

     the symmetry operations in each class and the name of the first element:

     E        1
          identity                                               
     2C3      3    4
          120 deg rotation - cryst. axis [0,0,1]                 
     3C2'     2    5    6
          180 deg rotation - cart. axis [1,0,0]                  
     i        7
          inversion                                              
     2S6      9   10
          inv. 120 deg rotation - cryst. axis [0,0,1]            
     3s_d     8   11   12
          inv. 180 deg rotation - cart. axis [1,0,0]             

   Cartesian axes

     site n.     atom                  positions (alat units)
         1        C      tau(   1) = (   0.0000000   0.0000000   0.0000000  )

   Crystallographic axes

     site n.     atom                  positions (cryst. coord.)
         1        C      tau(   1) = (  0.0000000  0.0000000  0.0000000  )

     number of k points=     1  Gaussian smearing, width (Ry)=  0.0050
                       cart. coord. in units 2pi/alat
        k(    1) = (   0.0000000   0.0000000   0.0000000), wk =   2.0000000

                       cryst. coord.
        k(    1) = (   0.0000000   0.0000000   0.0000000), wk =   2.0000000

     Dense  grid:     2871 G-vectors     FFT dimensions: (  18,  18,  18)

     Dynamical RAM for                 wfc:       0.03 MB

     Dynamical RAM for     wfc (w. buffer):       0.03 MB

     Dynamical RAM for           str. fact:       0.04 MB

     Dynamical RAM for           local pot:       0.00 MB

     Dynamical RAM for          nlocal pot:       0.04 MB

     Dynamical RAM for                qrad:       0.41 MB

     Dynamical RAM for          rho,v,vnew:       0.26 MB

     Dynamical RAM for               rhoin:       0.09 MB

     Dynamical RAM for            rho*nmix:       0.70 MB

     Dynamical RAM for           G-vectors:       0.19 MB

     Dynamical RAM for          h,s,v(r/c):       0.01 MB

     Dynamical RAM for          <psi|beta>:       0.00 MB

     Dynamical RAM for                 psi:       0.07 MB

     Dynamical RAM for                hpsi:       0.07 MB

     Dynamical RAM for      wfcinit/wfcrot:       0.07 MB

     Estimated static dynamical RAM per process >       1.38 MB

     Estimated max dynamical RAM per process >       2.22 MB

     Initial potential from superposition of free atoms

     starting charge       4.0000, renormalised to       4.0000
     Starting wfcs are    4 randomized atomic wfcs +    2 random wfcs

     total cpu time spent up to now is        0.1 secs

     Self-consistent Calculation

     iteration #  1     ecut=    80.00 Ry     beta= 0.70
     Davidson diagonalization with overlap

---- Real-time Memory Report at c_bands before calling an iterative solver
           176 MiB given to the printing process from OS
             0 MiB allocation reported by mallinfo(arena+hblkhd)
        122298 MiB available memory on the node where the printing process lives
------------------
     ethr =  1.00E-02,  avg # of iterations =  8.0

     total cpu time spent up to now is        0.2 secs

     total energy              =     -10.45766749 Ry
     estimated scf accuracy    <       0.37993201 Ry

     iteration #  2     ecut=    80.00 Ry     beta= 0.70
     Davidson diagonalization with overlap

---- Real-time Memory Report at c_bands before calling an iterative solver
           178 MiB given to the printing process from OS
             0 MiB allocation reported by mallinfo(arena+hblkhd)
        122294 MiB available memory on the node where the printing process lives
------------------
     ethr =  9.50E-03,  avg # of iterations =  1.0

     total cpu time spent up to now is        0.2 secs

     total energy              =     -10.45668732 Ry
     estimated scf accuracy    <       0.02823597 Ry

     iteration #  3     ecut=    80.00 Ry     beta= 0.70
     Davidson diagonalization with overlap

---- Real-time Memory Report at c_bands before calling an iterative solver
           178 MiB given to the printing process from OS
             0 MiB allocation reported by mallinfo(arena+hblkhd)
        122294 MiB available memory on the node where the printing process lives
------------------
     ethr =  7.06E-04,  avg # of iterations =  1.0

     total cpu time spent up to now is        0.2 secs

     total energy              =     -10.45785968 Ry
     estimated scf accuracy    <       0.00012642 Ry

     iteration #  4     ecut=    80.00 Ry     beta= 0.70
     Davidson diagonalization with overlap

---- Real-time Memory Report at c_bands before calling an iterative solver
           178 MiB given to the printing process from OS
             0 MiB allocation reported by mallinfo(arena+hblkhd)
        122294 MiB available memory on the node where the printing process lives
------------------
     ethr =  3.16E-06,  avg # of iterations =  2.0

     total cpu time spent up to now is        0.2 secs

     total energy              =     -10.45786725 Ry
     estimated scf accuracy    <       0.00003411 Ry

     iteration #  5     ecut=    80.00 Ry     beta= 0.70
     Davidson diagonalization with overlap

---- Real-time Memory Report at c_bands before calling an iterative solver
           178 MiB given to the printing process from OS
             0 MiB allocation reported by mallinfo(arena+hblkhd)
        122294 MiB available memory on the node where the printing process lives
------------------
     ethr =  8.53E-07,  avg # of iterations =  1.0

     total cpu time spent up to now is        0.2 secs

     total energy              =     -10.45786919 Ry
     estimated scf accuracy    <       0.00000023 Ry

     iteration #  6     ecut=    80.00 Ry     beta= 0.70
     Davidson diagonalization with overlap

---- Real-time Memory Report at c_bands before calling an iterative solver
           178 MiB given to the printing process from OS
             0 MiB allocation reported by mallinfo(arena+hblkhd)
        122294 MiB available memory on the node where the printing process lives
------------------
     ethr =  5.69E-09,  avg # of iterations =  2.0

     total cpu time spent up to now is        0.3 secs

     total energy              =     -10.45786926 Ry
     estimated scf accuracy    <       0.00000011 Ry

     iteration #  7     ecut=    80.00 Ry     beta= 0.70
     Davidson diagonalization with overlap

---- Real-time Memory Report at c_bands before calling an iterative solver
           178 MiB given to the printing process from OS
             0 MiB allocation reported by mallinfo(arena+hblkhd)
        122294 MiB available memory on the node where the printing process lives
------------------
     ethr =  2.65E-09,  avg # of iterations =  1.0

     total cpu time spent up to now is        0.3 secs

     End of self-consistent calculation

          k = 0.0000 0.0000 0.0000 (   383 PWs)   bands (ev):

    -5.5948  31.4648  34.5039  34.5039  50.1476  50.1476

     occupation numbers 
     1.0000   1.0000   0.0000   0.0000   0.0000   0.0000

     the Fermi energy is    32.9832 ev

!    total energy              =     -10.45786927 Ry
     estimated scf accuracy    <          3.5E-09 Ry
     smearing contrib. (-TS)   =      -0.00000000 Ry
     internal energy E=F+TS    =     -10.45786927 Ry

     The total energy is F=E-TS. E is the sum of the following terms:
     one-electron contribution =       7.53541464 Ry
     hartree contribution      =       0.71976964 Ry
     xc contribution           =      -3.98652981 Ry
     ewald contribution        =     -14.72652374 Ry

     convergence has been achieved in   7 iterations

     Writing all to output data dir sweeps/RHL2_5/RHL2_01.save/ :
     XML data file, charge density, pseudopotentials, collected wavefunctions
 
     init_run     :      4.49s CPU      0.11s WALL (       1 calls)
     electrons    :      8.51s CPU      0.15s WALL (       1 calls)

     Called by init_run:
     wfcinit      :      0.41s CPU      0.01s WALL (       1 calls)
     wfcinit:atom :      0.01s CPU      0.00s WALL (       1 calls)
     wfcinit:wfcr :      0.34s CPU      0.01s WALL (       1 calls)
     potinit      :      1.57s CPU      0.03s WALL (       1 calls)
     hinit0       :      2.50s CPU      0.07s WALL (       1 calls)

     Called by electrons:
     c_bands      :      5.59s CPU      0.10s WALL (       7 calls)
     sum_band     :      1.58s CPU      0.03s WALL (       7 calls)
     v_of_rho     :      0.97s CPU      0.02s WALL (       8 calls)
     v_h          :      0.28s CPU      0.00s WALL (       8 calls)
     v_xc         :      0.68s CPU      0.01s WALL (       8 calls)
     mix_rho      :      0.21s CPU      0.00s WALL (       7 calls)

     Called by c_bands:
     init_us_2    :      0.17s CPU      0.00s WALL (      15 calls)
     cegterg      :      5.41s CPU      0.09s WALL (       7 calls)

     Called by sum_band:
     sum_band:wei :      0.00s CPU      0.00s WALL (       7 calls)
     sum_band:loo :      1.25s CPU      0.02s WALL (       7 calls)
     sum_band:buf :      0.00s CPU      0.00s WALL (       7 calls)
     sum_band:ini :      0.09s CPU      0.00s WALL (       7 calls)

     Called by *egterg:
     cdiaghg      :      0.12s CPU      0.00s WALL (      23 calls)
     cegterg:over :      0.03s CPU      0.00s WALL (      16 calls)
     cegterg:upda :      0.16s CPU      0.00s WALL (      16 calls)
     cegterg:last :      0.02s CPU      0.00s WALL (      12 calls)
     h_psi        :      4.93s CPU      0.09s WALL (      24 calls)
     g_psi        :      0.19s CPU      0.00s WALL (      16 calls)

     Called by h_psi:
     h_psi:calbec :      0.05s CPU      0.00s WALL (      24 calls)
     vloc_psi     :      4.48s CPU      0.08s WALL (      24 calls)
     add_vuspsi   :      0.08s CPU      0.00s WALL (      24 calls)

     General routines
     calbec       :      0.03s CPU      0.00s WALL (      24 calls)
     fft          :      1.19s CPU      0.02s WALL (      79 calls)
     ffts         :      0.02s CPU      0.00s WALL (       7 calls)
     fftw         :      1.64s CPU      0.03s WALL (     256 calls)
 
     Parallel routines
 
     PWSCF        :     14.34s CPU      0.30s WALL

 
   This run was terminated on:  11:42:24  17Jun2025            

=------------------------------------------------------------------------------=
   JOB DONE.
=------------------------------------------------------------------------------=
