
     Program PWSCF v.7.3.1 starts on 17Jun2025 at 11:45:48 

     This program is part of the open-source Quantum ESPRESSO suite
     for quantum simulation of materials; please cite
         "P. Giannozzi et al., J. Phys.:Condens. Matter 21 395502 (2009);
         "P. Giannozzi et al., J. Phys.:Condens. Matter 29 465901 (2017);
         "P. Giannozzi et al., J. Chem. Phys. 152 154105 (2020);
          URL http://www.quantum-espresso.org", 
     in publications or presentations arising from this work. More details at
     http://www.quantum-espresso.org/quote

     Parallel version (MPI & OpenMP), running on      96 processor cores
     Number of MPI processes:                 1
     Threads/MPI process:                    96

     MPI processes distributed on     1 nodes
     122085 MiB available memory on the printing compute node when the environment starts
 
     Waiting for input...
     Reading input from standard input
Warning: card &IONS ignored
Warning: card     ION_DYNAMICS = 'BFGS' ignored
Warning: card /&END ignored
     Message from routine cell_base_init:
     DEPRECATED: use true lattice parameter, not A to a.u. conversion factor

     Current dimensions of program PWSCF are:
     Max number of different atomic species (ntypx) = 10
     Max number of k-points (npk) =  40000
     Max angular momentum in pseudopotentials (lmaxx) =  4
     Message from routine cell_base_init:
     DEPRECATED: use true lattice parameter, not A to a.u. conversion factor

     Atomic positions and unit cell read from directory:
     sweeps/ORCF2_10/ORCF2_01.save/
 
 
     Subspace diagonalization in iterative solution of the eigenvalue problem:
     a serial algorithm will be used

 
     G-vector sticks info
     --------------------
     sticks:   dense  smooth     PW     G-vecs:    dense   smooth      PW
     Sum          51      51     23                  243      243      69
 
     Using Slab Decomposition
 


     bravais-lattice index     =           10
     lattice parameter (alat)  =       1.8850  a.u.
     unit-cell volume          =       2.4224 (a.u.)^3
     number of atoms/cell      =            1
     number of atomic types    =            1
     number of electrons       =         4.00
     number of Kohn-Sham states=            6
     kinetic-energy cutoff     =      80.0000  Ry
     charge density cutoff     =     320.0000  Ry
     Exchange-correlation= PBE
                           (   1   4   3   4   0   0   0)

     celldm(1)=   1.884956  celldm(2)=   1.041667  celldm(3)=   1.388889
     celldm(4)=   0.000000  celldm(5)=   0.000000  celldm(6)=   0.000000

     crystal axes: (cart. coord. in units of alat)
               a(1) = (   0.500000   0.000000   0.694444 )  
               a(2) = (   0.500000   0.520833   0.000000 )  
               a(3) = (   0.000000   0.520833   0.694444 )  

     reciprocal axes: (cart. coord. in units 2 pi/alat)
               b(1) = (  1.000000 -0.960000  0.720000 )  
               b(2) = (  1.000000  0.960000 -0.720000 )  
               b(3) = ( -1.000000  0.960000  0.720000 )  


     PseudoPot. # 1 for C  read from file:
     ./C_ONCV_PBE_sr.upf
     MD5 check sum: b68b6074392897e22e8b22f1bd7aa93e
     Pseudo is Norm-conserving, Zval =  4.0
     Generated using ONCVPSP code by D. R. Hamann
     Using radial grid of 1248 points,  4 beta functions with: 
                l(1) =   0
                l(2) =   0
                l(3) =   1
                l(4) =   1

     atomic species   valence    mass     pseudopotential
     C                 4.00    10.81100     C ( 1.00)

      8 Sym. Ops., with inversion, found


                                    s                        frac. trans.

      isym =  1     identity                                     

 cryst.   s( 1) = (     1          0          0      )
                  (     0          1          0      )
                  (     0          0          1      )

 cart.    s( 1) = (  1.0000000  0.0000000  0.0000000 )
                  (  0.0000000  1.0000000  0.0000000 )
                  (  0.0000000  0.0000000  1.0000000 )


      isym =  2     180 deg rotation - cart. axis [0,0,1]        

 cryst.   s( 2) = (     0         -1          1      )
                  (     0         -1          0      )
                  (     1         -1          0      )

 cart.    s( 2) = ( -1.0000000  0.0000000  0.0000000 )
                  (  0.0000000 -1.0000000  0.0000000 )
                  (  0.0000000  0.0000000  1.0000000 )


      isym =  3     180 deg rotation - cart. axis [0,1,0]        

 cryst.   s( 3) = (    -1          0          0      )
                  (    -1          0          1      )
                  (    -1          1          0      )

 cart.    s( 3) = ( -1.0000000  0.0000000  0.0000000 )
                  (  0.0000000  1.0000000  0.0000000 )
                  (  0.0000000  0.0000000 -1.0000000 )


      isym =  4     180 deg rotation - cart. axis [1,0,0]        

 cryst.   s( 4) = (     0          1         -1      )
                  (     1          0         -1      )
                  (     0          0         -1      )

 cart.    s( 4) = (  1.0000000  0.0000000  0.0000000 )
                  (  0.0000000 -1.0000000  0.0000000 )
                  (  0.0000000  0.0000000 -1.0000000 )


      isym =  5     inversion                                    

 cryst.   s( 5) = (    -1          0          0      )
                  (     0         -1          0      )
                  (     0          0         -1      )

 cart.    s( 5) = ( -1.0000000  0.0000000  0.0000000 )
                  (  0.0000000 -1.0000000  0.0000000 )
                  (  0.0000000  0.0000000 -1.0000000 )


      isym =  6     inv. 180 deg rotation - cart. axis [0,0,1]   

 cryst.   s( 6) = (     0          1         -1      )
                  (     0          1          0      )
                  (    -1          1          0      )

 cart.    s( 6) = (  1.0000000  0.0000000  0.0000000 )
                  (  0.0000000  1.0000000  0.0000000 )
                  (  0.0000000  0.0000000 -1.0000000 )


      isym =  7     inv. 180 deg rotation - cart. axis [0,1,0]   

 cryst.   s( 7) = (     1          0          0      )
                  (     1          0         -1      )
                  (     1         -1          0      )

 cart.    s( 7) = (  1.0000000  0.0000000  0.0000000 )
                  (  0.0000000 -1.0000000  0.0000000 )
                  (  0.0000000  0.0000000  1.0000000 )


      isym =  8     inv. 180 deg rotation - cart. axis [1,0,0]   

 cryst.   s( 8) = (     0         -1          1      )
                  (    -1          0          1      )
                  (     0          0          1      )

 cart.    s( 8) = ( -1.0000000  0.0000000  0.0000000 )
                  (  0.0000000  1.0000000  0.0000000 )
                  (  0.0000000  0.0000000  1.0000000 )


     point group D_2h (mmm) 
     there are  8 classes
     the character table:

       E     C2    C2'   C2''  i     s_v   s_v'  s_v''
A_g    1.00  1.00  1.00  1.00  1.00  1.00  1.00  1.00
B_1g   1.00  1.00 -1.00 -1.00  1.00  1.00 -1.00 -1.00
B_2g   1.00 -1.00  1.00 -1.00  1.00 -1.00  1.00 -1.00
B_3g   1.00 -1.00 -1.00  1.00  1.00 -1.00 -1.00  1.00
A_u    1.00  1.00  1.00  1.00 -1.00 -1.00 -1.00 -1.00
B_1u   1.00  1.00 -1.00 -1.00 -1.00 -1.00  1.00  1.00
B_2u   1.00 -1.00  1.00 -1.00 -1.00  1.00 -1.00  1.00
B_3u   1.00 -1.00 -1.00  1.00 -1.00  1.00  1.00 -1.00

     the symmetry operations in each class and the name of the first element:

     E        1
          identity                                               
     C2       2
          180 deg rotation - cart. axis [0,0,1]                  
     C2'      4
          180 deg rotation - cart. axis [1,0,0]                  
     C2''     3
          180 deg rotation - cart. axis [0,1,0]                  
     i        5
          inversion                                              
     s_v      6
          inv. 180 deg rotation - cart. axis [0,0,1]             
     s_v'     8
          inv. 180 deg rotation - cart. axis [1,0,0]             
     s_v''    7
          inv. 180 deg rotation - cart. axis [0,1,0]             

   Cartesian axes

     site n.     atom                  positions (alat units)
         1        C      tau(   1) = (   0.0000000   0.0000000   0.0000000  )

   Crystallographic axes

     site n.     atom                  positions (cryst. coord.)
         1        C      tau(   1) = (  0.0000000  0.0000000  0.0000000  )

     number of k points=    10  Gaussian smearing, width (Ry)=  0.0050
                       cart. coord. in units 2pi/alat
        k(    1) = (   0.2984000   0.9600000   0.0000000), wk =   0.2000000
        k(    2) = (   0.7016000  -0.0000000   0.7200000), wk =   0.2000000
        k(    3) = (   1.0000000   0.2291667   0.0000000), wk =   0.2000000
        k(    4) = (   0.0000000   0.7308333   0.7200000), wk =   0.2000000
        k(    5) = (   0.5000000   0.4800000   0.3600000), wk =   0.2000000
        k(    6) = (   0.0000000   0.9600000   0.4144444), wk =   0.2000000
        k(    7) = (   1.0000000  -0.0000000   0.3055556), wk =   0.2000000
        k(    8) = (   1.0000000   0.0000000   0.0000000), wk =   0.2000000
        k(    9) = (   0.0000000   0.9600000   0.0000000), wk =   0.2000000
        k(   10) = (   0.0000000   0.0000000   0.7200000), wk =   0.2000000

                       cryst. coord.
        k(    1) = (   0.1492000   0.6492000   0.5000000), wk =   0.2000000
        k(    2) = (   0.8508000   0.3508000   0.5000000), wk =   0.2000000
        k(    3) = (   0.5000000   0.6193576   0.1193576), wk =   0.2000000
        k(    4) = (   0.5000000   0.3806424   0.8806424), wk =   0.2000000
        k(    5) = (   0.5000000   0.5000000   0.5000000), wk =   0.2000000
        k(    6) = (   0.2878086   0.5000000   0.7878086), wk =   0.2000000
        k(    7) = (   0.7121914   0.5000000   0.2121914), wk =   0.2000000
        k(    8) = (   0.5000000   0.5000000   0.0000000), wk =   0.2000000
        k(    9) = (   0.0000000   0.5000000   0.5000000), wk =   0.2000000
        k(   10) = (   0.5000000   0.0000000   0.5000000), wk =   0.2000000

     Dense  grid:      243 G-vectors     FFT dimensions: (   9,   8,   9)

     Dynamical RAM for                 wfc:       0.00 MB

     Dynamical RAM for     wfc (w. buffer):       0.00 MB

     Dynamical RAM for           str. fact:       0.00 MB

     Dynamical RAM for           local pot:       0.00 MB

     Dynamical RAM for          nlocal pot:       0.00 MB

     Dynamical RAM for                qrad:       0.41 MB

     Dynamical RAM for          rho,v,vnew:       0.03 MB

     Dynamical RAM for           G-vectors:       0.02 MB

     Dynamical RAM for          h,s,v(r/c):       0.01 MB

     Dynamical RAM for          <psi|beta>:       0.00 MB

     Dynamical RAM for                 psi:       0.01 MB

     Dynamical RAM for                hpsi:       0.01 MB

     Dynamical RAM for      wfcinit/wfcrot:       0.01 MB

     Estimated static dynamical RAM per process >       0.49 MB

     Estimated max dynamical RAM per process >       0.51 MB

     The potential is recalculated from file :
     sweeps/ORCF2_10/ORCF2_01.save/charge-density

     Starting wfcs are    4 randomized atomic wfcs +    2 random wfcs

     Band Structure Calculation
     Davidson diagonalization with overlap

     Computing kpt #:     1  of    10
     total cpu time spent up to now is        0.1 secs

     Computing kpt #:     2  of    10
     total cpu time spent up to now is        0.2 secs

     Computing kpt #:     3  of    10
     total cpu time spent up to now is        0.2 secs

     Computing kpt #:     4  of    10
     total cpu time spent up to now is        0.2 secs

     Computing kpt #:     5  of    10
     total cpu time spent up to now is        0.3 secs

     Computing kpt #:     6  of    10
     total cpu time spent up to now is        0.3 secs

     Computing kpt #:     7  of    10
     total cpu time spent up to now is        0.3 secs

     Computing kpt #:     8  of    10
     total cpu time spent up to now is        0.4 secs

     Computing kpt #:     9  of    10
     total cpu time spent up to now is        0.4 secs

     Computing kpt #:    10  of    10
     total cpu time spent up to now is        0.5 secs

     ethr =  2.50E-10,  avg # of iterations =  9.6

     total cpu time spent up to now is        0.5 secs

     End of band structure calculation

          k = 0.2984 0.9600 0.0000 (    30 PWs)   bands (ev):

   121.5952 132.2337 138.5618 244.0741 320.9382 359.1873

          k = 0.7016-0.0000 0.7200 (    30 PWs)   bands (ev):

   121.5952 132.2337 138.5618 244.0741 320.9382 359.1873

          k = 1.0000 0.2292 0.0000 (    30 PWs)   bands (ev):

   126.0805 138.0123 144.7277 222.2175 281.9837 353.6679

          k = 0.0000 0.7308 0.7200 (    30 PWs)   bands (ev):

   126.0805 138.0123 144.7277 222.2175 281.9837 353.6679

          k = 0.5000 0.4800 0.3600 (    30 PWs)   bands (ev):

    69.5401 164.6063 204.5300 291.3610 305.4387 368.2960

          k = 0.0000 0.9600 0.4144 (    30 PWs)   bands (ev):

   131.4254 132.3330 157.2410 244.0832 281.3524 284.9264

          k = 1.0000-0.0000 0.3056 (    30 PWs)   bands (ev):

   131.4254 132.3330 157.2410 244.0832 281.3524 284.9264

          k = 1.0000 0.0000 0.0000 (    34 PWs)   bands (ev):

   117.6657 164.6766 175.5813 191.0427 220.4196 351.0791

          k = 0.0000 0.9600 0.0000 (    34 PWs)   bands (ev):

   107.3508 172.6237 174.3951 202.7145 232.0323 349.0594

          k = 0.0000 0.0000 0.7200 (    24 PWs)   bands (ev):

    62.8296 158.0177 243.3611 245.9113 285.4266 379.7955

     Writing all to output data dir sweeps/ORCF2_10/ORCF2_01.save/ :
     XML data file, pseudopotentials, collected wavefunctions
 
     init_run     :      1.66s CPU      0.06s WALL (       1 calls)
     electrons    :     21.44s CPU      0.38s WALL (       1 calls)

     Called by init_run:
     wfcinit      :      0.03s CPU      0.00s WALL (       1 calls)
     wfcinit:atom :      0.09s CPU      0.00s WALL (      10 calls)
     wfcinit:wfcr :      2.93s CPU      0.05s WALL (      10 calls)
     potinit      :      0.08s CPU      0.00s WALL (       1 calls)
     hinit0       :      1.54s CPU      0.05s WALL (       1 calls)

     Called by electrons:
     c_bands      :     21.44s CPU      0.38s WALL (       1 calls)
     v_of_rho     :      0.06s CPU      0.00s WALL (       1 calls)
     v_h          :      0.02s CPU      0.00s WALL (       1 calls)
     v_xc         :      0.04s CPU      0.00s WALL (       1 calls)

     Called by c_bands:
     init_us_2    :      0.08s CPU      0.00s WALL (      10 calls)
     cegterg      :     18.19s CPU      0.32s WALL (      10 calls)

     Called by sum_band:

     Called by *egterg:
     cdiaghg      :      0.48s CPU      0.01s WALL (     106 calls)
     cegterg:over :      0.09s CPU      0.00s WALL (      96 calls)
     cegterg:upda :      0.81s CPU      0.01s WALL (      96 calls)
     cegterg:last :      0.05s CPU      0.00s WALL (      72 calls)
     h_psi        :     17.49s CPU      0.31s WALL (     116 calls)
     g_psi        :      0.96s CPU      0.02s WALL (      96 calls)

     Called by h_psi:
     h_psi:calbec :      0.14s CPU      0.00s WALL (     116 calls)
     vloc_psi     :     15.97s CPU      0.28s WALL (     116 calls)
     add_vuspsi   :      0.12s CPU      0.00s WALL (     116 calls)

     General routines
     calbec       :      0.06s CPU      0.00s WALL (     116 calls)
     fft          :      0.03s CPU      0.00s WALL (      10 calls)
     fftw         :      2.66s CPU      0.05s WALL (    1042 calls)
     davcio       :      0.02s CPU      0.00s WALL (      20 calls)
 
     Parallel routines
 
     PWSCF        :     25.03s CPU      0.49s WALL

 
   This run was terminated on:  11:45:48  17Jun2025            

=------------------------------------------------------------------------------=
   JOB DONE.
=------------------------------------------------------------------------------=
