
     Program PWSCF v.7.3.1 starts on 17Jun2025 at 11:45:52 

     This program is part of the open-source Quantum ESPRESSO suite
     for quantum simulation of materials; please cite
         "P. Giannozzi et al., J. Phys.:Condens. Matter 21 395502 (2009);
         "P. Giannozzi et al., J. Phys.:Condens. Matter 29 465901 (2017);
         "P. Giannozzi et al., J. Chem. Phys. 152 154105 (2020);
          URL http://www.quantum-espresso.org", 
     in publications or presentations arising from this work. More details at
     http://www.quantum-espresso.org/quote

     Parallel version (MPI & OpenMP), running on      96 processor cores
     Number of MPI processes:                 1
     Threads/MPI process:                    96

     MPI processes distributed on     1 nodes
     122094 MiB available memory on the printing compute node when the environment starts
 
     Waiting for input...
     Reading input from standard input
Warning: card &IONS ignored
Warning: card     ION_DYNAMICS = 'BFGS' ignored
Warning: card /&END ignored

     Current dimensions of program PWSCF are:
     Max number of different atomic species (ntypx) = 10
     Max number of k-points (npk) =  40000
     Max angular momentum in pseudopotentials (lmaxx) =  4

     Atomic positions and unit cell read from directory:
     sweeps/ORCF2_10/ORCF2_03.save/
 
 
     Subspace diagonalization in iterative solution of the eigenvalue problem:
     a serial algorithm will be used

 
     G-vector sticks info
     --------------------
     sticks:   dense  smooth     PW     G-vecs:    dense   smooth      PW
     Sum         457     457    145                 6343     6343    1153
 
     Using Slab Decomposition
 


     bravais-lattice index     =           10
     lattice parameter (alat)  =       5.6549  a.u.
     unit-cell volume          =      65.4039 (a.u.)^3
     number of atoms/cell      =            1
     number of atomic types    =            1
     number of electrons       =         4.00
     number of Kohn-Sham states=            6
     kinetic-energy cutoff     =      80.0000  Ry
     charge density cutoff     =     320.0000  Ry
     Exchange-correlation= PBE
                           (   1   4   3   4   0   0   0)

     celldm(1)=   5.654867  celldm(2)=   1.041667  celldm(3)=   1.388889
     celldm(4)=   0.000000  celldm(5)=   0.000000  celldm(6)=   0.000000

     crystal axes: (cart. coord. in units of alat)
               a(1) = (   0.500000   0.000000   0.694444 )  
               a(2) = (   0.500000   0.520833   0.000000 )  
               a(3) = (   0.000000   0.520833   0.694444 )  

     reciprocal axes: (cart. coord. in units 2 pi/alat)
               b(1) = (  1.000000 -0.960000  0.720000 )  
               b(2) = (  1.000000  0.960000 -0.720000 )  
               b(3) = ( -1.000000  0.960000  0.720000 )  


     PseudoPot. # 1 for C  read from file:
     ./C_ONCV_PBE_sr.upf
     MD5 check sum: b68b6074392897e22e8b22f1bd7aa93e
     Pseudo is Norm-conserving, Zval =  4.0
     Generated using ONCVPSP code by D. R. Hamann
     Using radial grid of 1248 points,  4 beta functions with: 
                l(1) =   0
                l(2) =   0
                l(3) =   1
                l(4) =   1

     atomic species   valence    mass     pseudopotential
     C                 4.00    10.81100     C ( 1.00)

      8 Sym. Ops., with inversion, found


                                    s                        frac. trans.

      isym =  1     identity                                     

 cryst.   s( 1) = (     1          0          0      )
                  (     0          1          0      )
                  (     0          0          1      )

 cart.    s( 1) = (  1.0000000  0.0000000  0.0000000 )
                  (  0.0000000  1.0000000  0.0000000 )
                  (  0.0000000  0.0000000  1.0000000 )


      isym =  2     180 deg rotation - cart. axis [0,0,1]        

 cryst.   s( 2) = (     0         -1          1      )
                  (     0         -1          0      )
                  (     1         -1          0      )

 cart.    s( 2) = ( -1.0000000  0.0000000  0.0000000 )
                  (  0.0000000 -1.0000000  0.0000000 )
                  (  0.0000000  0.0000000  1.0000000 )


      isym =  3     180 deg rotation - cart. axis [0,1,0]        

 cryst.   s( 3) = (    -1          0          0      )
                  (    -1          0          1      )
                  (    -1          1          0      )

 cart.    s( 3) = ( -1.0000000  0.0000000  0.0000000 )
                  (  0.0000000  1.0000000  0.0000000 )
                  (  0.0000000  0.0000000 -1.0000000 )


      isym =  4     180 deg rotation - cart. axis [1,0,0]        

 cryst.   s( 4) = (     0          1         -1      )
                  (     1          0         -1      )
                  (     0          0         -1      )

 cart.    s( 4) = (  1.0000000  0.0000000  0.0000000 )
                  (  0.0000000 -1.0000000  0.0000000 )
                  (  0.0000000  0.0000000 -1.0000000 )


      isym =  5     inversion                                    

 cryst.   s( 5) = (    -1          0          0      )
                  (     0         -1          0      )
                  (     0          0         -1      )

 cart.    s( 5) = ( -1.0000000  0.0000000  0.0000000 )
                  (  0.0000000 -1.0000000  0.0000000 )
                  (  0.0000000  0.0000000 -1.0000000 )


      isym =  6     inv. 180 deg rotation - cart. axis [0,0,1]   

 cryst.   s( 6) = (     0          1         -1      )
                  (     0          1          0      )
                  (    -1          1          0      )

 cart.    s( 6) = (  1.0000000  0.0000000  0.0000000 )
                  (  0.0000000  1.0000000  0.0000000 )
                  (  0.0000000  0.0000000 -1.0000000 )


      isym =  7     inv. 180 deg rotation - cart. axis [0,1,0]   

 cryst.   s( 7) = (     1          0          0      )
                  (     1          0         -1      )
                  (     1         -1          0      )

 cart.    s( 7) = (  1.0000000  0.0000000  0.0000000 )
                  (  0.0000000 -1.0000000  0.0000000 )
                  (  0.0000000  0.0000000  1.0000000 )


      isym =  8     inv. 180 deg rotation - cart. axis [1,0,0]   

 cryst.   s( 8) = (     0         -1          1      )
                  (    -1          0          1      )
                  (     0          0          1      )

 cart.    s( 8) = ( -1.0000000  0.0000000  0.0000000 )
                  (  0.0000000  1.0000000  0.0000000 )
                  (  0.0000000  0.0000000  1.0000000 )


     point group D_2h (mmm) 
     there are  8 classes
     the character table:

       E     C2    C2'   C2''  i     s_v   s_v'  s_v''
A_g    1.00  1.00  1.00  1.00  1.00  1.00  1.00  1.00
B_1g   1.00  1.00 -1.00 -1.00  1.00  1.00 -1.00 -1.00
B_2g   1.00 -1.00  1.00 -1.00  1.00 -1.00  1.00 -1.00
B_3g   1.00 -1.00 -1.00  1.00  1.00 -1.00 -1.00  1.00
A_u    1.00  1.00  1.00  1.00 -1.00 -1.00 -1.00 -1.00
B_1u   1.00  1.00 -1.00 -1.00 -1.00 -1.00  1.00  1.00
B_2u   1.00 -1.00  1.00 -1.00 -1.00  1.00 -1.00  1.00
B_3u   1.00 -1.00 -1.00  1.00 -1.00  1.00  1.00 -1.00

     the symmetry operations in each class and the name of the first element:

     E        1
          identity                                               
     C2       2
          180 deg rotation - cart. axis [0,0,1]                  
     C2'      4
          180 deg rotation - cart. axis [1,0,0]                  
     C2''     3
          180 deg rotation - cart. axis [0,1,0]                  
     i        5
          inversion                                              
     s_v      6
          inv. 180 deg rotation - cart. axis [0,0,1]             
     s_v'     8
          inv. 180 deg rotation - cart. axis [1,0,0]             
     s_v''    7
          inv. 180 deg rotation - cart. axis [0,1,0]             

   Cartesian axes

     site n.     atom                  positions (alat units)
         1        C      tau(   1) = (   0.0000000   0.0000000   0.0000000  )

   Crystallographic axes

     site n.     atom                  positions (cryst. coord.)
         1        C      tau(   1) = (  0.0000000  0.0000000  0.0000000  )

     number of k points=    10  Gaussian smearing, width (Ry)=  0.0050
                       cart. coord. in units 2pi/alat
        k(    1) = (   0.2984000   0.9600000   0.0000000), wk =   0.2000000
        k(    2) = (   0.7016000  -0.0000000   0.7200000), wk =   0.2000000
        k(    3) = (   1.0000000   0.2291667   0.0000000), wk =   0.2000000
        k(    4) = (   0.0000000   0.7308333   0.7200000), wk =   0.2000000
        k(    5) = (   0.5000000   0.4800000   0.3600000), wk =   0.2000000
        k(    6) = (  -0.0000000   0.9600000   0.4144444), wk =   0.2000000
        k(    7) = (   1.0000000   0.0000000   0.3055556), wk =   0.2000000
        k(    8) = (   1.0000000   0.0000000   0.0000000), wk =   0.2000000
        k(    9) = (   0.0000000   0.9600000   0.0000000), wk =   0.2000000
        k(   10) = (   0.0000000   0.0000000   0.7200000), wk =   0.2000000

                       cryst. coord.
        k(    1) = (   0.1492000   0.6492000   0.5000000), wk =   0.2000000
        k(    2) = (   0.8508000   0.3508000   0.5000000), wk =   0.2000000
        k(    3) = (   0.5000000   0.6193576   0.1193576), wk =   0.2000000
        k(    4) = (   0.5000000   0.3806424   0.8806424), wk =   0.2000000
        k(    5) = (   0.5000000   0.5000000   0.5000000), wk =   0.2000000
        k(    6) = (   0.2878086   0.5000000   0.7878086), wk =   0.2000000
        k(    7) = (   0.7121914   0.5000000   0.2121914), wk =   0.2000000
        k(    8) = (   0.5000000   0.5000000   0.0000000), wk =   0.2000000
        k(    9) = (   0.0000000   0.5000000   0.5000000), wk =   0.2000000
        k(   10) = (   0.5000000   0.0000000   0.5000000), wk =   0.2000000

     Dense  grid:     6343 G-vectors     FFT dimensions: (  27,  24,  27)

     Dynamical RAM for                 wfc:       0.07 MB

     Dynamical RAM for     wfc (w. buffer):       0.07 MB

     Dynamical RAM for           str. fact:       0.10 MB

     Dynamical RAM for           local pot:       0.00 MB

     Dynamical RAM for          nlocal pot:       0.10 MB

     Dynamical RAM for                qrad:       0.41 MB

     Dynamical RAM for          rho,v,vnew:       0.69 MB

     Dynamical RAM for           G-vectors:       0.41 MB

     Dynamical RAM for          h,s,v(r/c):       0.01 MB

     Dynamical RAM for          <psi|beta>:       0.00 MB

     Dynamical RAM for                 psi:       0.14 MB

     Dynamical RAM for                hpsi:       0.14 MB

     Dynamical RAM for      wfcinit/wfcrot:       0.15 MB

     Estimated static dynamical RAM per process >       2.64 MB

     Estimated max dynamical RAM per process >       2.94 MB

     The potential is recalculated from file :
     sweeps/ORCF2_10/ORCF2_03.save/charge-density

     Starting wfcs are    4 randomized atomic wfcs +    2 random wfcs

     Band Structure Calculation
     Davidson diagonalization with overlap

     Computing kpt #:     1  of    10
     total cpu time spent up to now is        0.2 secs

     Computing kpt #:     2  of    10
     total cpu time spent up to now is        0.3 secs

     Computing kpt #:     3  of    10
     total cpu time spent up to now is        0.4 secs

     Computing kpt #:     4  of    10
     total cpu time spent up to now is        0.5 secs

     Computing kpt #:     5  of    10
     total cpu time spent up to now is        0.6 secs

     Computing kpt #:     6  of    10
     total cpu time spent up to now is        0.7 secs

     Computing kpt #:     7  of    10
     total cpu time spent up to now is        0.8 secs

     Computing kpt #:     8  of    10
     total cpu time spent up to now is        0.9 secs

     Computing kpt #:     9  of    10
     total cpu time spent up to now is        1.0 secs

     Computing kpt #:    10  of    10
     total cpu time spent up to now is        1.1 secs

     ethr =  2.50E-10,  avg # of iterations = 15.6

     total cpu time spent up to now is        1.1 secs

     End of band structure calculation

          k = 0.2984 0.9600 0.0000 (   794 PWs)   bands (ev):

     2.0710   4.4514   6.9783   7.8074  22.7524  25.9950

          k = 0.7016-0.0000 0.7200 (   794 PWs)   bands (ev):

     2.0710   4.4514   6.9783   7.8074  22.7524  25.9950

          k = 1.0000 0.2292 0.0000 (   786 PWs)   bands (ev):

     2.5883   4.6758   7.2578   8.1865  20.2072  24.1625

          k = 0.0000 0.7308 0.7200 (   786 PWs)   bands (ev):

     2.5883   4.6758   7.2578   8.1865  20.2072  24.1625

          k = 0.5000 0.4800 0.3600 (   798 PWs)   bands (ev):

    -1.0113   0.7793  10.1299  15.4497  22.5060  32.5442

          k =-0.0000 0.9600 0.4144 (   790 PWs)   bands (ev):

     4.4514   4.8921   4.9000   9.8609  19.2945  25.7553

          k = 1.0000 0.0000 0.3056 (   790 PWs)   bands (ev):

     4.4514   4.8921   4.9000   9.8609  19.2945  25.7553

          k = 1.0000 0.0000 0.0000 (   792 PWs)   bands (ev):

     3.9259   4.5521   6.3744  10.3566  17.4202  21.4774

          k = 0.0000 0.9600 0.0000 (   792 PWs)   bands (ev):

     3.1684   3.9038   7.0262  11.0505  18.1280  22.6473

          k = 0.0000 0.0000 0.7200 (   788 PWs)   bands (ev):

    -3.2894   1.3191  12.8148  13.1328  25.8280  25.9531

     Writing all to output data dir sweeps/ORCF2_10/ORCF2_03.save/ :
     XML data file, pseudopotentials, collected wavefunctions
 
     init_run     :      2.49s CPU      0.08s WALL (       1 calls)
     electrons    :     52.30s CPU      1.01s WALL (       1 calls)

     Called by init_run:
     wfcinit      :      0.04s CPU      0.00s WALL (       1 calls)
     wfcinit:atom :      0.11s CPU      0.00s WALL (      10 calls)
     wfcinit:wfcr :      3.69s CPU      0.07s WALL (      10 calls)
     potinit      :      0.27s CPU      0.01s WALL (       1 calls)
     hinit0       :      2.17s CPU      0.07s WALL (       1 calls)

     Called by electrons:
     c_bands      :     52.29s CPU      1.01s WALL (       1 calls)
     v_of_rho     :      0.23s CPU      0.00s WALL (       1 calls)
     v_h          :      0.04s CPU      0.00s WALL (       1 calls)
     v_xc         :      0.19s CPU      0.00s WALL (       1 calls)

     Called by c_bands:
     init_us_2    :      0.13s CPU      0.00s WALL (      10 calls)
     cegterg      :     48.18s CPU      0.93s WALL (      11 calls)

     Called by sum_band:

     Called by *egterg:
     cdiaghg      :      0.72s CPU      0.01s WALL (     166 calls)
     cegterg:over :      0.70s CPU      0.01s WALL (     156 calls)
     cegterg:upda :      1.50s CPU      0.03s WALL (     156 calls)
     cegterg:last :      0.34s CPU      0.01s WALL (     112 calls)
     h_psi        :     45.14s CPU      0.87s WALL (     177 calls)
     g_psi        :      1.37s CPU      0.03s WALL (     156 calls)

     Called by h_psi:
     h_psi:calbec :      0.43s CPU      0.01s WALL (     177 calls)
     vloc_psi     :     42.47s CPU      0.82s WALL (     177 calls)
     add_vuspsi   :      0.28s CPU      0.01s WALL (     177 calls)

     General routines
     calbec       :      0.33s CPU      0.01s WALL (     177 calls)
     fft          :      0.87s CPU      0.02s WALL (      10 calls)
     fftw         :     22.71s CPU      0.44s WALL (    1502 calls)
     davcio       :      0.04s CPU      0.00s WALL (      20 calls)
 
     Parallel routines
 
     PWSCF        :     56.10s CPU      1.14s WALL

 
   This run was terminated on:  11:45:53  17Jun2025            

=------------------------------------------------------------------------------=
   JOB DONE.
=------------------------------------------------------------------------------=
