
     Program PWSCF v.7.3.1 starts on 17Jun2025 at 11:43:54 

     This program is part of the open-source Quantum ESPRESSO suite
     for quantum simulation of materials; please cite
         "P. Giannozzi et al., J. Phys.:Condens. Matter 21 395502 (2009);
         "P. Giannozzi et al., J. Phys.:Condens. Matter 29 465901 (2017);
         "P. Giannozzi et al., J. Chem. Phys. 152 154105 (2020);
          URL http://www.quantum-espresso.org", 
     in publications or presentations arising from this work. More details at
     http://www.quantum-espresso.org/quote

     Parallel version (MPI & OpenMP), running on      96 processor cores
     Number of MPI processes:                 1
     Threads/MPI process:                    96

     MPI processes distributed on     1 nodes
     122289 MiB available memory on the printing compute node when the environment starts
 
     Waiting for input...
     Reading input from standard input

     Current dimensions of program PWSCF are:
     Max number of different atomic species (ntypx) = 10
     Max number of k-points (npk) =  40000
     Max angular momentum in pseudopotentials (lmaxx) =  4
 
     Subspace diagonalization in iterative solution of the eigenvalue problem:
     a serial algorithm will be used

 
     G-vector sticks info
     --------------------
     sticks:   dense  smooth     PW     G-vecs:    dense   smooth      PW
     Sum         225     225     57                 2237     2237     291
 
     Using Slab Decomposition
 


     bravais-lattice index     =            7
     lattice parameter (alat)  =       3.1416  a.u.
     unit-cell volume          =      23.2547 (a.u.)^3
     number of atoms/cell      =            1
     number of atomic types    =            1
     number of electrons       =         4.00
     number of Kohn-Sham states=            6
     kinetic-energy cutoff     =      80.0000  Ry
     charge density cutoff     =     320.0000  Ry
     scf convergence threshold =      1.0E-08
     mixing beta               =       0.7000
     number of iterations used =            8  plain     mixing
     Exchange-correlation= PBE
                           (   1   4   3   4   0   0   0)

     celldm(1)=   3.141593  celldm(2)=   0.000000  celldm(3)=   1.500000
     celldm(4)=   0.000000  celldm(5)=   0.000000  celldm(6)=   0.000000

     crystal axes: (cart. coord. in units of alat)
               a(1) = (   0.500000  -0.500000   0.750000 )  
               a(2) = (   0.500000   0.500000   0.750000 )  
               a(3) = (  -0.500000  -0.500000   0.750000 )  

     reciprocal axes: (cart. coord. in units 2 pi/alat)
               b(1) = (  1.000000 -1.000000  0.000000 )  
               b(2) = (  0.000000  1.000000  0.666667 )  
               b(3) = ( -1.000000  0.000000  0.666667 )  


     PseudoPot. # 1 for C  read from file:
     ./C_ONCV_PBE_sr.upf
     MD5 check sum: b68b6074392897e22e8b22f1bd7aa93e
     Pseudo is Norm-conserving, Zval =  4.0
     Generated using ONCVPSP code by D. R. Hamann
     Using radial grid of 1248 points,  4 beta functions with: 
                l(1) =   0
                l(2) =   0
                l(3) =   1
                l(4) =   1

     atomic species   valence    mass     pseudopotential
     C                 4.00    10.81100     C ( 1.00)

     16 Sym. Ops., with inversion, found


                                    s                        frac. trans.

      isym =  1     identity                                     

 cryst.   s( 1) = (     1          0          0      )
                  (     0          1          0      )
                  (     0          0          1      )

 cart.    s( 1) = (  1.0000000  0.0000000  0.0000000 )
                  (  0.0000000  1.0000000  0.0000000 )
                  (  0.0000000  0.0000000  1.0000000 )


      isym =  2     180 deg rotation - cart. axis [0,0,1]        

 cryst.   s( 2) = (    -1          1          1      )
                  (     0          0          1      )
                  (     0          1          0      )

 cart.    s( 2) = ( -1.0000000  0.0000000  0.0000000 )
                  (  0.0000000 -1.0000000  0.0000000 )
                  (  0.0000000  0.0000000  1.0000000 )


      isym =  3     180 deg rotation - cart. axis [0,1,0]        

 cryst.   s( 3) = (     0         -1          0      )
                  (    -1          0          0      )
                  (     1         -1         -1      )

 cart.    s( 3) = ( -1.0000000  0.0000000  0.0000000 )
                  (  0.0000000  1.0000000  0.0000000 )
                  (  0.0000000  0.0000000 -1.0000000 )


      isym =  4     180 deg rotation - cart. axis [1,0,0]        

 cryst.   s( 4) = (     0          0         -1      )
                  (     1         -1         -1      )
                  (    -1          0          0      )

 cart.    s( 4) = (  1.0000000  0.0000000  0.0000000 )
                  (  0.0000000 -1.0000000  0.0000000 )
                  (  0.0000000  0.0000000 -1.0000000 )


      isym =  5     180 deg rotation - cart. axis [1,1,0]        

 cryst.   s( 5) = (    -1          0          0      )
                  (     0          0         -1      )
                  (     0         -1          0      )

 cart.    s( 5) = (  0.0000000  1.0000000  0.0000000 )
                  (  1.0000000  0.0000000  0.0000000 )
                  (  0.0000000  0.0000000 -1.0000000 )


      isym =  6     180 deg rotation - cart. axis [1,-1,0]       

 cryst.   s( 6) = (     1         -1         -1      )
                  (     0         -1          0      )
                  (     0          0         -1      )

 cart.    s( 6) = (  0.0000000 -1.0000000  0.0000000 )
                  ( -1.0000000  0.0000000  0.0000000 )
                  (  0.0000000  0.0000000 -1.0000000 )


      isym =  7      90 deg rotation - cart. axis [0,0,-1]       

 cryst.   s( 7) = (     0          0          1      )
                  (     1          0          0      )
                  (    -1          1          1      )

 cart.    s( 7) = (  0.0000000  1.0000000  0.0000000 )
                  ( -1.0000000  0.0000000  0.0000000 )
                  (  0.0000000  0.0000000  1.0000000 )


      isym =  8      90 deg rotation - cart. axis [0,0,1]        

 cryst.   s( 8) = (     0          1          0      )
                  (    -1          1          1      )
                  (     1          0          0      )

 cart.    s( 8) = (  0.0000000 -1.0000000  0.0000000 )
                  (  1.0000000  0.0000000  0.0000000 )
                  (  0.0000000  0.0000000  1.0000000 )


      isym =  9     inversion                                    

 cryst.   s( 9) = (    -1          0          0      )
                  (     0         -1          0      )
                  (     0          0         -1      )

 cart.    s( 9) = ( -1.0000000  0.0000000  0.0000000 )
                  (  0.0000000 -1.0000000  0.0000000 )
                  (  0.0000000  0.0000000 -1.0000000 )


      isym = 10     inv. 180 deg rotation - cart. axis [0,0,1]   

 cryst.   s(10) = (     1         -1         -1      )
                  (     0          0         -1      )
                  (     0         -1          0      )

 cart.    s(10) = (  1.0000000  0.0000000  0.0000000 )
                  (  0.0000000  1.0000000  0.0000000 )
                  (  0.0000000  0.0000000 -1.0000000 )


      isym = 11     inv. 180 deg rotation - cart. axis [0,1,0]   

 cryst.   s(11) = (     0          1          0      )
                  (     1          0          0      )
                  (    -1          1          1      )

 cart.    s(11) = (  1.0000000  0.0000000  0.0000000 )
                  (  0.0000000 -1.0000000  0.0000000 )
                  (  0.0000000  0.0000000  1.0000000 )


      isym = 12     inv. 180 deg rotation - cart. axis [1,0,0]   

 cryst.   s(12) = (     0          0          1      )
                  (    -1          1          1      )
                  (     1          0          0      )

 cart.    s(12) = ( -1.0000000  0.0000000  0.0000000 )
                  (  0.0000000  1.0000000  0.0000000 )
                  (  0.0000000  0.0000000  1.0000000 )


      isym = 13     inv. 180 deg rotation - cart. axis [1,1,0]   

 cryst.   s(13) = (     1          0          0      )
                  (     0          0          1      )
                  (     0          1          0      )

 cart.    s(13) = (  0.0000000 -1.0000000  0.0000000 )
                  ( -1.0000000  0.0000000  0.0000000 )
                  (  0.0000000  0.0000000  1.0000000 )


      isym = 14     inv. 180 deg rotation - cart. axis [1,-1,0]  

 cryst.   s(14) = (    -1          1          1      )
                  (     0          1          0      )
                  (     0          0          1      )

 cart.    s(14) = (  0.0000000  1.0000000  0.0000000 )
                  (  1.0000000  0.0000000  0.0000000 )
                  (  0.0000000  0.0000000  1.0000000 )


      isym = 15     inv.  90 deg rotation - cart. axis [0,0,-1]  

 cryst.   s(15) = (     0          0         -1      )
                  (    -1          0          0      )
                  (     1         -1         -1      )

 cart.    s(15) = (  0.0000000 -1.0000000  0.0000000 )
                  (  1.0000000  0.0000000  0.0000000 )
                  (  0.0000000  0.0000000 -1.0000000 )


      isym = 16     inv.  90 deg rotation - cart. axis [0,0,1]   

 cryst.   s(16) = (     0         -1          0      )
                  (     1         -1         -1      )
                  (    -1          0          0      )

 cart.    s(16) = (  0.0000000  1.0000000  0.0000000 )
                  ( -1.0000000  0.0000000  0.0000000 )
                  (  0.0000000  0.0000000 -1.0000000 )


     point group D_4h(4/mmm)
     there are 10 classes
     the character table:

       E     2C4   C2    2C2'  2C2'' i     2S4   s_h   2s_v  2s_d 
A_1g   1.00  1.00  1.00  1.00  1.00  1.00  1.00  1.00  1.00  1.00
A_2g   1.00  1.00  1.00 -1.00 -1.00  1.00  1.00  1.00 -1.00 -1.00
B_1g   1.00 -1.00  1.00  1.00 -1.00  1.00 -1.00  1.00  1.00 -1.00
B_2g   1.00 -1.00  1.00 -1.00  1.00  1.00 -1.00  1.00 -1.00  1.00
E_g    2.00  0.00 -2.00  0.00  0.00  2.00  0.00 -2.00  0.00  0.00
A_1u   1.00  1.00  1.00  1.00  1.00 -1.00 -1.00 -1.00 -1.00 -1.00
A_2u   1.00  1.00  1.00 -1.00 -1.00 -1.00 -1.00 -1.00  1.00  1.00
B_1u   1.00 -1.00  1.00  1.00 -1.00 -1.00  1.00 -1.00 -1.00  1.00
B_2u   1.00 -1.00  1.00 -1.00  1.00 -1.00  1.00 -1.00  1.00 -1.00
E_u    2.00  0.00 -2.00  0.00  0.00 -2.00  0.00  2.00  0.00  0.00

     the symmetry operations in each class and the name of the first element:

     E        1
          identity                                               
     2C4      7    8
           90 deg rotation - cart. axis [0,0,-1]                 
     C2       2
          180 deg rotation - cart. axis [0,0,1]                  
     2C2'     3    4
          180 deg rotation - cart. axis [0,1,0]                  
     2C2''    5    6
          180 deg rotation - cart. axis [1,1,0]                  
     i        9
          inversion                                              
     2S4     15   16
          inv.  90 deg rotation - cart. axis [0,0,-1]            
     s_h     10
          inv. 180 deg rotation - cart. axis [0,0,1]             
     2s_v    11   12
          inv. 180 deg rotation - cart. axis [0,1,0]             
     2s_d    13   14
          inv. 180 deg rotation - cart. axis [1,1,0]             

   Cartesian axes

     site n.     atom                  positions (alat units)
         1        C      tau(   1) = (   0.0000000   0.0000000   0.0000000  )

   Crystallographic axes

     site n.     atom                  positions (cryst. coord.)
         1        C      tau(   1) = (  0.0000000  0.0000000  0.0000000  )

     number of k points=     1  Gaussian smearing, width (Ry)=  0.0050
                       cart. coord. in units 2pi/alat
        k(    1) = (   0.0000000   0.0000000   0.0000000), wk =   2.0000000

                       cryst. coord.
        k(    1) = (   0.0000000   0.0000000   0.0000000), wk =   2.0000000

     Dense  grid:     2237 G-vectors     FFT dimensions: (  20,  20,  20)

     Dynamical RAM for                 wfc:       0.03 MB

     Dynamical RAM for     wfc (w. buffer):       0.03 MB

     Dynamical RAM for           str. fact:       0.03 MB

     Dynamical RAM for           local pot:       0.00 MB

     Dynamical RAM for          nlocal pot:       0.03 MB

     Dynamical RAM for                qrad:       0.41 MB

     Dynamical RAM for          rho,v,vnew:       0.29 MB

     Dynamical RAM for               rhoin:       0.10 MB

     Dynamical RAM for            rho*nmix:       0.55 MB

     Dynamical RAM for           G-vectors:       0.15 MB

     Dynamical RAM for          h,s,v(r/c):       0.01 MB

     Dynamical RAM for          <psi|beta>:       0.00 MB

     Dynamical RAM for                 psi:       0.05 MB

     Dynamical RAM for                hpsi:       0.05 MB

     Dynamical RAM for      wfcinit/wfcrot:       0.05 MB

     Estimated static dynamical RAM per process >       1.40 MB

     Estimated max dynamical RAM per process >       2.06 MB

     Initial potential from superposition of free atoms

     starting charge       4.0000, renormalised to       4.0000
     Starting wfcs are    4 randomized atomic wfcs +    2 random wfcs

     total cpu time spent up to now is        0.2 secs

     Self-consistent Calculation

     iteration #  1     ecut=    80.00 Ry     beta= 0.70
     Davidson diagonalization with overlap

---- Real-time Memory Report at c_bands before calling an iterative solver
           177 MiB given to the printing process from OS
             0 MiB allocation reported by mallinfo(arena+hblkhd)
        122212 MiB available memory on the node where the printing process lives
------------------
     ethr =  1.00E-02,  avg # of iterations =  6.0

     total cpu time spent up to now is        0.2 secs

     total energy              =      -9.38067930 Ry
     estimated scf accuracy    <       0.55465124 Ry

     iteration #  2     ecut=    80.00 Ry     beta= 0.70
     Davidson diagonalization with overlap

---- Real-time Memory Report at c_bands before calling an iterative solver
           178 MiB given to the printing process from OS
             0 MiB allocation reported by mallinfo(arena+hblkhd)
        122212 MiB available memory on the node where the printing process lives
------------------
     ethr =  1.00E-02,  avg # of iterations =  1.0

     total cpu time spent up to now is        0.3 secs

     total energy              =      -9.37376571 Ry
     estimated scf accuracy    <       0.04557329 Ry

     iteration #  3     ecut=    80.00 Ry     beta= 0.70
     Davidson diagonalization with overlap

---- Real-time Memory Report at c_bands before calling an iterative solver
           178 MiB given to the printing process from OS
             0 MiB allocation reported by mallinfo(arena+hblkhd)
        122212 MiB available memory on the node where the printing process lives
------------------
     ethr =  1.14E-03,  avg # of iterations =  5.0

     total cpu time spent up to now is        0.3 secs

     total energy              =      -9.39190605 Ry
     estimated scf accuracy    <       0.76515665 Ry

     iteration #  4     ecut=    80.00 Ry     beta= 0.70
     Davidson diagonalization with overlap

---- Real-time Memory Report at c_bands before calling an iterative solver
           178 MiB given to the printing process from OS
             0 MiB allocation reported by mallinfo(arena+hblkhd)
        122212 MiB available memory on the node where the printing process lives
------------------
     ethr =  1.14E-03,  avg # of iterations =  1.0

     total cpu time spent up to now is        0.3 secs

     total energy              =      -9.39929024 Ry
     estimated scf accuracy    <       0.64059513 Ry

     iteration #  5     ecut=    80.00 Ry     beta= 0.70
     Davidson diagonalization with overlap

---- Real-time Memory Report at c_bands before calling an iterative solver
           178 MiB given to the printing process from OS
             0 MiB allocation reported by mallinfo(arena+hblkhd)
        122212 MiB available memory on the node where the printing process lives
------------------
     ethr =  1.14E-03,  avg # of iterations =  1.0

     total cpu time spent up to now is        0.3 secs

     total energy              =      -9.39193655 Ry
     estimated scf accuracy    <       0.48549581 Ry

     iteration #  6     ecut=    80.00 Ry     beta= 0.70
     Davidson diagonalization with overlap

---- Real-time Memory Report at c_bands before calling an iterative solver
           178 MiB given to the printing process from OS
             0 MiB allocation reported by mallinfo(arena+hblkhd)
        122212 MiB available memory on the node where the printing process lives
------------------
     ethr =  1.14E-03,  avg # of iterations =  1.0

     total cpu time spent up to now is        0.3 secs

     total energy              =      -9.38650873 Ry
     estimated scf accuracy    <       0.18099262 Ry

     iteration #  7     ecut=    80.00 Ry     beta= 0.70
     Davidson diagonalization with overlap

---- Real-time Memory Report at c_bands before calling an iterative solver
           178 MiB given to the printing process from OS
             0 MiB allocation reported by mallinfo(arena+hblkhd)
        122212 MiB available memory on the node where the printing process lives
------------------
     ethr =  1.14E-03,  avg # of iterations =  1.0

     total cpu time spent up to now is        0.4 secs

     total energy              =      -9.39031931 Ry
     estimated scf accuracy    <       0.01004383 Ry

     iteration #  8     ecut=    80.00 Ry     beta= 0.70
     Davidson diagonalization with overlap

---- Real-time Memory Report at c_bands before calling an iterative solver
           178 MiB given to the printing process from OS
             0 MiB allocation reported by mallinfo(arena+hblkhd)
        122212 MiB available memory on the node where the printing process lives
------------------
     ethr =  2.51E-04,  avg # of iterations =  1.0

     total cpu time spent up to now is        0.4 secs

     total energy              =      -9.38141157 Ry
     estimated scf accuracy    <       0.01350463 Ry

     iteration #  9     ecut=    80.00 Ry     beta= 0.70
     Davidson diagonalization with overlap

---- Real-time Memory Report at c_bands before calling an iterative solver
           178 MiB given to the printing process from OS
             0 MiB allocation reported by mallinfo(arena+hblkhd)
        122212 MiB available memory on the node where the printing process lives
------------------
     ethr =  2.51E-04,  avg # of iterations =  2.0

     total cpu time spent up to now is        0.4 secs

     total energy              =      -9.38524512 Ry
     estimated scf accuracy    <       0.27922623 Ry

     iteration # 10     ecut=    80.00 Ry     beta= 0.70
     Davidson diagonalization with overlap

---- Real-time Memory Report at c_bands before calling an iterative solver
           178 MiB given to the printing process from OS
             0 MiB allocation reported by mallinfo(arena+hblkhd)
        122212 MiB available memory on the node where the printing process lives
------------------
     ethr =  2.51E-04,  avg # of iterations =  1.0

     total cpu time spent up to now is        0.4 secs

     total energy              =      -9.39456452 Ry
     estimated scf accuracy    <       0.31267612 Ry

     iteration # 11     ecut=    80.00 Ry     beta= 0.70
     Davidson diagonalization with overlap

---- Real-time Memory Report at c_bands before calling an iterative solver
           178 MiB given to the printing process from OS
             0 MiB allocation reported by mallinfo(arena+hblkhd)
        122212 MiB available memory on the node where the printing process lives
------------------
     ethr =  2.51E-04,  avg # of iterations =  2.0

     total cpu time spent up to now is        0.5 secs

     total energy              =      -9.39877730 Ry
     estimated scf accuracy    <       0.33854626 Ry

     iteration # 12     ecut=    80.00 Ry     beta= 0.70
     Davidson diagonalization with overlap

---- Real-time Memory Report at c_bands before calling an iterative solver
           178 MiB given to the printing process from OS
             0 MiB allocation reported by mallinfo(arena+hblkhd)
        122210 MiB available memory on the node where the printing process lives
------------------
     ethr =  2.51E-04,  avg # of iterations =  1.0

     total cpu time spent up to now is        0.5 secs

     total energy              =      -9.39719954 Ry
     estimated scf accuracy    <       0.32287250 Ry

     iteration # 13     ecut=    80.00 Ry     beta= 0.70
     Davidson diagonalization with overlap

---- Real-time Memory Report at c_bands before calling an iterative solver
           178 MiB given to the printing process from OS
             0 MiB allocation reported by mallinfo(arena+hblkhd)
        122210 MiB available memory on the node where the printing process lives
------------------
     ethr =  2.51E-04,  avg # of iterations =  1.0

     total cpu time spent up to now is        0.5 secs

     total energy              =      -9.38643833 Ry
     estimated scf accuracy    <       0.27599216 Ry

     iteration # 14     ecut=    80.00 Ry     beta= 0.70
     Davidson diagonalization with overlap

---- Real-time Memory Report at c_bands before calling an iterative solver
           178 MiB given to the printing process from OS
             0 MiB allocation reported by mallinfo(arena+hblkhd)
        122210 MiB available memory on the node where the printing process lives
------------------
     ethr =  2.51E-04,  avg # of iterations =  1.0

     total cpu time spent up to now is        0.5 secs

     total energy              =      -9.39056479 Ry
     estimated scf accuracy    <       0.00016823 Ry

     iteration # 15     ecut=    80.00 Ry     beta= 0.70
     Davidson diagonalization with overlap

---- Real-time Memory Report at c_bands before calling an iterative solver
           180 MiB given to the printing process from OS
             0 MiB allocation reported by mallinfo(arena+hblkhd)
        122210 MiB available memory on the node where the printing process lives
------------------
     ethr =  4.21E-06,  avg # of iterations =  3.0

     total cpu time spent up to now is        0.6 secs

     total energy              =      -9.39401742 Ry
     estimated scf accuracy    <       0.35554296 Ry

     iteration # 16     ecut=    80.00 Ry     beta= 0.70
     Davidson diagonalization with overlap

---- Real-time Memory Report at c_bands before calling an iterative solver
           180 MiB given to the printing process from OS
             0 MiB allocation reported by mallinfo(arena+hblkhd)
        122210 MiB available memory on the node where the printing process lives
------------------
     ethr =  4.21E-06,  avg # of iterations =  2.0

     total cpu time spent up to now is        0.6 secs

     total energy              =      -9.38186230 Ry
     estimated scf accuracy    <       0.20815632 Ry

     iteration # 17     ecut=    80.00 Ry     beta= 0.70
     Davidson diagonalization with overlap

---- Real-time Memory Report at c_bands before calling an iterative solver
           180 MiB given to the printing process from OS
             0 MiB allocation reported by mallinfo(arena+hblkhd)
        122210 MiB available memory on the node where the printing process lives
------------------
     ethr =  4.21E-06,  avg # of iterations =  2.0

     total cpu time spent up to now is        0.6 secs

     total energy              =      -9.39517046 Ry
     estimated scf accuracy    <       0.17830440 Ry

     iteration # 18     ecut=    80.00 Ry     beta= 0.70
     Davidson diagonalization with overlap

---- Real-time Memory Report at c_bands before calling an iterative solver
           180 MiB given to the printing process from OS
             0 MiB allocation reported by mallinfo(arena+hblkhd)
        122210 MiB available memory on the node where the printing process lives
------------------
     ethr =  4.21E-06,  avg # of iterations =  1.0

     total cpu time spent up to now is        0.6 secs

     total energy              =      -9.39108339 Ry
     estimated scf accuracy    <       0.23736202 Ry

     iteration # 19     ecut=    80.00 Ry     beta= 0.70
     Davidson diagonalization with overlap

---- Real-time Memory Report at c_bands before calling an iterative solver
           180 MiB given to the printing process from OS
             0 MiB allocation reported by mallinfo(arena+hblkhd)
        122210 MiB available memory on the node where the printing process lives
------------------
     ethr =  4.21E-06,  avg # of iterations =  2.0

     total cpu time spent up to now is        0.7 secs

     total energy              =      -9.39853164 Ry
     estimated scf accuracy    <       0.09330542 Ry

     iteration # 20     ecut=    80.00 Ry     beta= 0.70
     Davidson diagonalization with overlap

---- Real-time Memory Report at c_bands before calling an iterative solver
           180 MiB given to the printing process from OS
             0 MiB allocation reported by mallinfo(arena+hblkhd)
        122210 MiB available memory on the node where the printing process lives
------------------
     ethr =  4.21E-06,  avg # of iterations =  2.0

     total cpu time spent up to now is        0.7 secs

     total energy              =      -9.37814923 Ry
     estimated scf accuracy    <       0.37729417 Ry

     iteration # 21     ecut=    80.00 Ry     beta= 0.70
     Davidson diagonalization with overlap

---- Real-time Memory Report at c_bands before calling an iterative solver
           180 MiB given to the printing process from OS
             0 MiB allocation reported by mallinfo(arena+hblkhd)
        122210 MiB available memory on the node where the printing process lives
------------------
     ethr =  4.21E-06,  avg # of iterations =  2.0

     total cpu time spent up to now is        0.7 secs

     total energy              =      -9.39632284 Ry
     estimated scf accuracy    <       0.15306698 Ry

     iteration # 22     ecut=    80.00 Ry     beta= 0.70
     Davidson diagonalization with overlap

---- Real-time Memory Report at c_bands before calling an iterative solver
           180 MiB given to the printing process from OS
             0 MiB allocation reported by mallinfo(arena+hblkhd)
        122210 MiB available memory on the node where the printing process lives
------------------
     ethr =  4.21E-06,  avg # of iterations =  2.0

     total cpu time spent up to now is        0.7 secs

     total energy              =      -9.39301258 Ry
     estimated scf accuracy    <       0.26414842 Ry

     iteration # 23     ecut=    80.00 Ry     beta= 0.70
     Davidson diagonalization with overlap

---- Real-time Memory Report at c_bands before calling an iterative solver
           180 MiB given to the printing process from OS
             0 MiB allocation reported by mallinfo(arena+hblkhd)
        122210 MiB available memory on the node where the printing process lives
------------------
     ethr =  4.21E-06,  avg # of iterations =  2.0

     total cpu time spent up to now is        0.8 secs

     total energy              =      -9.39311627 Ry
     estimated scf accuracy    <       0.16595049 Ry

     iteration # 24     ecut=    80.00 Ry     beta= 0.70
     Davidson diagonalization with overlap

---- Real-time Memory Report at c_bands before calling an iterative solver
           180 MiB given to the printing process from OS
             0 MiB allocation reported by mallinfo(arena+hblkhd)
        122210 MiB available memory on the node where the printing process lives
------------------
     ethr =  4.21E-06,  avg # of iterations =  1.0

     total cpu time spent up to now is        0.8 secs

     total energy              =      -9.39005685 Ry
     estimated scf accuracy    <       0.16157468 Ry

     iteration # 25     ecut=    80.00 Ry     beta= 0.70
     Davidson diagonalization with overlap

---- Real-time Memory Report at c_bands before calling an iterative solver
           180 MiB given to the printing process from OS
             0 MiB allocation reported by mallinfo(arena+hblkhd)
        122210 MiB available memory on the node where the printing process lives
------------------
     ethr =  4.21E-06,  avg # of iterations =  2.0

     total cpu time spent up to now is        0.8 secs

     total energy              =      -9.39094537 Ry
     estimated scf accuracy    <       0.03832977 Ry

     iteration # 26     ecut=    80.00 Ry     beta= 0.70
     Davidson diagonalization with overlap

---- Real-time Memory Report at c_bands before calling an iterative solver
           180 MiB given to the printing process from OS
             0 MiB allocation reported by mallinfo(arena+hblkhd)
        122210 MiB available memory on the node where the printing process lives
------------------
     ethr =  4.21E-06,  avg # of iterations =  1.0

     total cpu time spent up to now is        0.8 secs

     total energy              =      -9.39128251 Ry
     estimated scf accuracy    <       0.05556769 Ry

     iteration # 27     ecut=    80.00 Ry     beta= 0.70
     Davidson diagonalization with overlap

---- Real-time Memory Report at c_bands before calling an iterative solver
           180 MiB given to the printing process from OS
             0 MiB allocation reported by mallinfo(arena+hblkhd)
        122210 MiB available memory on the node where the printing process lives
------------------
     ethr =  4.21E-06,  avg # of iterations =  1.0

     total cpu time spent up to now is        0.8 secs

     total energy              =      -9.39030666 Ry
     estimated scf accuracy    <       0.07493887 Ry

     iteration # 28     ecut=    80.00 Ry     beta= 0.70
     Davidson diagonalization with overlap

---- Real-time Memory Report at c_bands before calling an iterative solver
           180 MiB given to the printing process from OS
             0 MiB allocation reported by mallinfo(arena+hblkhd)
        122210 MiB available memory on the node where the printing process lives
------------------
     ethr =  4.21E-06,  avg # of iterations =  1.0

     total cpu time spent up to now is        0.9 secs

     total energy              =      -9.39027273 Ry
     estimated scf accuracy    <       0.02508732 Ry

     iteration # 29     ecut=    80.00 Ry     beta= 0.70
     Davidson diagonalization with overlap

---- Real-time Memory Report at c_bands before calling an iterative solver
           180 MiB given to the printing process from OS
             0 MiB allocation reported by mallinfo(arena+hblkhd)
        122210 MiB available memory on the node where the printing process lives
------------------
     ethr =  4.21E-06,  avg # of iterations =  1.0

     total cpu time spent up to now is        0.9 secs

     total energy              =      -9.39189919 Ry
     estimated scf accuracy    <       0.01303502 Ry

     iteration # 30     ecut=    80.00 Ry     beta= 0.70
     Davidson diagonalization with overlap

---- Real-time Memory Report at c_bands before calling an iterative solver
           180 MiB given to the printing process from OS
             0 MiB allocation reported by mallinfo(arena+hblkhd)
        122210 MiB available memory on the node where the printing process lives
------------------
     ethr =  4.21E-06,  avg # of iterations =  2.0

     total cpu time spent up to now is        0.9 secs

     total energy              =      -9.39664090 Ry
     estimated scf accuracy    <       0.18105359 Ry

     iteration # 31     ecut=    80.00 Ry     beta= 0.70
     Davidson diagonalization with overlap

---- Real-time Memory Report at c_bands before calling an iterative solver
           180 MiB given to the printing process from OS
             0 MiB allocation reported by mallinfo(arena+hblkhd)
        122210 MiB available memory on the node where the printing process lives
------------------
     ethr =  4.21E-06,  avg # of iterations =  2.0

     total cpu time spent up to now is        0.9 secs

     total energy              =      -9.39751539 Ry
     estimated scf accuracy    <       0.26879434 Ry

     iteration # 32     ecut=    80.00 Ry     beta= 0.70
     Davidson diagonalization with overlap

---- Real-time Memory Report at c_bands before calling an iterative solver
           180 MiB given to the printing process from OS
             0 MiB allocation reported by mallinfo(arena+hblkhd)
        122210 MiB available memory on the node where the printing process lives
------------------
     ethr =  4.21E-06,  avg # of iterations =  1.0

     total cpu time spent up to now is        1.0 secs

     total energy              =      -9.39358982 Ry
     estimated scf accuracy    <       0.28991879 Ry

     iteration # 33     ecut=    80.00 Ry     beta= 0.70
     Davidson diagonalization with overlap

---- Real-time Memory Report at c_bands before calling an iterative solver
           180 MiB given to the printing process from OS
             0 MiB allocation reported by mallinfo(arena+hblkhd)
        122210 MiB available memory on the node where the printing process lives
------------------
     ethr =  4.21E-06,  avg # of iterations =  2.0

     total cpu time spent up to now is        1.0 secs

     total energy              =      -9.38339931 Ry
     estimated scf accuracy    <       0.19339009 Ry

     iteration # 34     ecut=    80.00 Ry     beta= 0.70
     Davidson diagonalization with overlap

---- Real-time Memory Report at c_bands before calling an iterative solver
           180 MiB given to the printing process from OS
             0 MiB allocation reported by mallinfo(arena+hblkhd)
        122210 MiB available memory on the node where the printing process lives
------------------
     ethr =  4.21E-06,  avg # of iterations =  2.0

     total cpu time spent up to now is        1.0 secs

     total energy              =      -9.38795663 Ry
     estimated scf accuracy    <       0.12210165 Ry

     iteration # 35     ecut=    80.00 Ry     beta= 0.70
     Davidson diagonalization with overlap

---- Real-time Memory Report at c_bands before calling an iterative solver
           180 MiB given to the printing process from OS
             0 MiB allocation reported by mallinfo(arena+hblkhd)
        122210 MiB available memory on the node where the printing process lives
------------------
     ethr =  4.21E-06,  avg # of iterations =  2.0

     total cpu time spent up to now is        1.0 secs

     total energy              =      -9.39010295 Ry
     estimated scf accuracy    <       0.00199862 Ry

     iteration # 36     ecut=    80.00 Ry     beta= 0.70
     Davidson diagonalization with overlap

---- Real-time Memory Report at c_bands before calling an iterative solver
           180 MiB given to the printing process from OS
             0 MiB allocation reported by mallinfo(arena+hblkhd)
        122210 MiB available memory on the node where the printing process lives
------------------
     ethr =  4.21E-06,  avg # of iterations =  1.0

     total cpu time spent up to now is        1.1 secs

     total energy              =      -9.39010607 Ry
     estimated scf accuracy    <       0.00088817 Ry

     iteration # 37     ecut=    80.00 Ry     beta= 0.70
     Davidson diagonalization with overlap

---- Real-time Memory Report at c_bands before calling an iterative solver
           180 MiB given to the printing process from OS
             0 MiB allocation reported by mallinfo(arena+hblkhd)
        122210 MiB available memory on the node where the printing process lives
------------------
     ethr =  4.21E-06,  avg # of iterations =  1.0

     total cpu time spent up to now is        1.1 secs

     total energy              =      -9.39009491 Ry
     estimated scf accuracy    <       0.00091158 Ry

     iteration # 38     ecut=    80.00 Ry     beta= 0.70
     Davidson diagonalization with overlap

---- Real-time Memory Report at c_bands before calling an iterative solver
           180 MiB given to the printing process from OS
             0 MiB allocation reported by mallinfo(arena+hblkhd)
        122210 MiB available memory on the node where the printing process lives
------------------
     ethr =  4.21E-06,  avg # of iterations =  1.0

     total cpu time spent up to now is        1.1 secs

     total energy              =      -9.39009243 Ry
     estimated scf accuracy    <       0.00031220 Ry

     iteration # 39     ecut=    80.00 Ry     beta= 0.70
     Davidson diagonalization with overlap

---- Real-time Memory Report at c_bands before calling an iterative solver
           180 MiB given to the printing process from OS
             0 MiB allocation reported by mallinfo(arena+hblkhd)
        122208 MiB available memory on the node where the printing process lives
------------------
     ethr =  4.21E-06,  avg # of iterations =  1.0

     total cpu time spent up to now is        1.1 secs

     total energy              =      -9.39009280 Ry
     estimated scf accuracy    <       0.00007640 Ry

     iteration # 40     ecut=    80.00 Ry     beta= 0.70
     Davidson diagonalization with overlap

---- Real-time Memory Report at c_bands before calling an iterative solver
           180 MiB given to the printing process from OS
             0 MiB allocation reported by mallinfo(arena+hblkhd)
        122208 MiB available memory on the node where the printing process lives
------------------
     ethr =  1.91E-06,  avg # of iterations =  1.0

     total cpu time spent up to now is        1.1 secs

     total energy              =      -9.39009138 Ry
     estimated scf accuracy    <       0.00003703 Ry

     iteration # 41     ecut=    80.00 Ry     beta= 0.70
     Davidson diagonalization with overlap

---- Real-time Memory Report at c_bands before calling an iterative solver
           180 MiB given to the printing process from OS
             0 MiB allocation reported by mallinfo(arena+hblkhd)
        122208 MiB available memory on the node where the printing process lives
------------------
     ethr =  9.26E-07,  avg # of iterations =  1.0

     total cpu time spent up to now is        1.1 secs

     total energy              =      -9.39009224 Ry
     estimated scf accuracy    <       0.00000848 Ry

     iteration # 42     ecut=    80.00 Ry     beta= 0.70
     Davidson diagonalization with overlap

---- Real-time Memory Report at c_bands before calling an iterative solver
           180 MiB given to the printing process from OS
             0 MiB allocation reported by mallinfo(arena+hblkhd)
        122208 MiB available memory on the node where the printing process lives
------------------
     ethr =  2.12E-07,  avg # of iterations =  1.0

     total cpu time spent up to now is        1.2 secs

     total energy              =      -9.39009234 Ry
     estimated scf accuracy    <       0.00000004 Ry

     iteration # 43     ecut=    80.00 Ry     beta= 0.70
     Davidson diagonalization with overlap

---- Real-time Memory Report at c_bands before calling an iterative solver
           180 MiB given to the printing process from OS
             0 MiB allocation reported by mallinfo(arena+hblkhd)
        122208 MiB available memory on the node where the printing process lives
------------------
     ethr =  8.87E-10,  avg # of iterations =  1.0

     total cpu time spent up to now is        1.2 secs

     End of self-consistent calculation

          k = 0.0000 0.0000 0.0000 (   291 PWs)   bands (ev):

    -4.1679  45.4940  45.5162  45.5162  69.6276  71.1574

     occupation numbers 
     1.0000   0.4475   0.2762   0.2762   0.0000   0.0000

     the Fermi energy is    45.4877 ev

!    total energy              =      -9.39009234 Ry
     estimated scf accuracy    <          1.1E-09 Ry
     smearing contrib. (-TS)   =      -0.00752578 Ry
     internal energy E=F+TS    =      -9.38256656 Ry

     The total energy is F=E-TS. E is the sum of the following terms:
     one-electron contribution =      10.35090726 Ry
     hartree contribution      =       0.49734338 Ry
     xc contribution           =      -4.04167395 Ry
     ewald contribution        =     -16.18914325 Ry

     convergence has been achieved in  43 iterations

     Writing all to output data dir sweeps/BCT2_7/BCT2_01.save/ :
     XML data file, charge density, pseudopotentials, collected wavefunctions
 
     init_run     :      5.76s CPU      0.16s WALL (       1 calls)
     electrons    :     54.05s CPU      0.98s WALL (       1 calls)

     Called by init_run:
     wfcinit      :      0.50s CPU      0.01s WALL (       1 calls)
     wfcinit:atom :      0.01s CPU      0.00s WALL (       1 calls)
     wfcinit:wfcr :      0.37s CPU      0.01s WALL (       1 calls)
     potinit      :      2.73s CPU      0.05s WALL (       1 calls)
     hinit0       :      2.53s CPU      0.09s WALL (       1 calls)

     Called by electrons:
     c_bands      :     33.14s CPU      0.60s WALL (      43 calls)
     sum_band     :     10.75s CPU      0.19s WALL (      43 calls)
     v_of_rho     :      7.03s CPU      0.13s WALL (      44 calls)
     v_h          :      2.47s CPU      0.04s WALL (      44 calls)
     v_xc         :      4.51s CPU      0.08s WALL (      44 calls)
     mix_rho      :      2.73s CPU      0.05s WALL (      43 calls)

     Called by c_bands:
     init_us_2    :      1.62s CPU      0.03s WALL (      87 calls)
     cegterg      :     31.79s CPU      0.58s WALL (      43 calls)

     Called by sum_band:
     sum_band:wei :      0.09s CPU      0.00s WALL (      43 calls)
     sum_band:loo :      7.81s CPU      0.14s WALL (      43 calls)
     sum_band:buf :      0.01s CPU      0.00s WALL (      43 calls)
     sum_band:ini :      1.06s CPU      0.02s WALL (      43 calls)

     Called by *egterg:
     cdiaghg      :      0.44s CPU      0.01s WALL (     112 calls)
     cegterg:over :      0.12s CPU      0.00s WALL (      69 calls)
     cegterg:upda :      1.13s CPU      0.02s WALL (      69 calls)
     cegterg:last :      0.08s CPU      0.00s WALL (      64 calls)
     h_psi        :     28.70s CPU      0.52s WALL (     113 calls)
     g_psi        :      0.58s CPU      0.01s WALL (      69 calls)

     Called by h_psi:
     h_psi:calbec :      0.22s CPU      0.00s WALL (     113 calls)
     vloc_psi     :     27.09s CPU      0.49s WALL (     113 calls)
     add_vuspsi   :      0.16s CPU      0.00s WALL (     113 calls)

     General routines
     calbec       :      0.15s CPU      0.00s WALL (     113 calls)
     fft          :      2.87s CPU      0.05s WALL (     439 calls)
     ffts         :      0.19s CPU      0.00s WALL (      43 calls)
     fftw         :     10.25s CPU      0.19s WALL (    1476 calls)
 
     Parallel routines
 
     PWSCF        :   1m 0.61s CPU      1.19s WALL

 
   This run was terminated on:  11:43:55  17Jun2025            

=------------------------------------------------------------------------------=
   JOB DONE.
=------------------------------------------------------------------------------=
