
     Program PWSCF v.7.3.1 starts on 17Jun2025 at 11:45:39 

     This program is part of the open-source Quantum ESPRESSO suite
     for quantum simulation of materials; please cite
         "P. Giannozzi et al., J. Phys.:Condens. Matter 21 395502 (2009);
         "P. Giannozzi et al., J. Phys.:Condens. Matter 29 465901 (2017);
         "P. Giannozzi et al., J. Chem. Phys. 152 154105 (2020);
          URL http://www.quantum-espresso.org", 
     in publications or presentations arising from this work. More details at
     http://www.quantum-espresso.org/quote

     Parallel version (MPI & OpenMP), running on      96 processor cores
     Number of MPI processes:                 1
     Threads/MPI process:                    96

     MPI processes distributed on     1 nodes
     122104 MiB available memory on the printing compute node when the environment starts
 
     Waiting for input...
     Reading input from standard input
Warning: card &IONS ignored
Warning: card     ION_DYNAMICS = 'BFGS' ignored
Warning: card /&END ignored

     Current dimensions of program PWSCF are:
     Max number of different atomic species (ntypx) = 10
     Max number of k-points (npk) =  40000
     Max angular momentum in pseudopotentials (lmaxx) =  4

     Atomic positions and unit cell read from directory:
     sweeps/ORCF1_10/ORCF1_03.save/
 
 
     Subspace diagonalization in iterative solution of the eigenvalue problem:
     a serial algorithm will be used

 
     G-vector sticks info
     --------------------
     sticks:   dense  smooth     PW     G-vecs:    dense   smooth      PW
     Sum        1445    1445    425                29487    29487    4657
 
     Using Slab Decomposition
 


     bravais-lattice index     =           10
     lattice parameter (alat)  =       6.5973  a.u.
     unit-cell volume          =     305.2180 (a.u.)^3
     number of atoms/cell      =            1
     number of atomic types    =            1
     number of electrons       =         4.00
     number of Kohn-Sham states=            6
     kinetic-energy cutoff     =      80.0000  Ry
     charge density cutoff     =     320.0000  Ry
     Exchange-correlation= PBE
                           (   1   4   3   4   0   0   0)

     celldm(1)=   6.597345  celldm(2)=   1.785714  celldm(3)=   2.380952
     celldm(4)=   0.000000  celldm(5)=   0.000000  celldm(6)=   0.000000

     crystal axes: (cart. coord. in units of alat)
               a(1) = (   0.500000   0.000000   1.190476 )  
               a(2) = (   0.500000   0.892857   0.000000 )  
               a(3) = (   0.000000   0.892857   1.190476 )  

     reciprocal axes: (cart. coord. in units 2 pi/alat)
               b(1) = (  1.000000 -0.560000  0.420000 )  
               b(2) = (  1.000000  0.560000 -0.420000 )  
               b(3) = ( -1.000000  0.560000  0.420000 )  


     PseudoPot. # 1 for C  read from file:
     ./C_ONCV_PBE_sr.upf
     MD5 check sum: b68b6074392897e22e8b22f1bd7aa93e
     Pseudo is Norm-conserving, Zval =  4.0
     Generated using ONCVPSP code by D. R. Hamann
     Using radial grid of 1248 points,  4 beta functions with: 
                l(1) =   0
                l(2) =   0
                l(3) =   1
                l(4) =   1

     atomic species   valence    mass     pseudopotential
     C                 4.00    10.81100     C ( 1.00)

      8 Sym. Ops., with inversion, found


                                    s                        frac. trans.

      isym =  1     identity                                     

 cryst.   s( 1) = (     1          0          0      )
                  (     0          1          0      )
                  (     0          0          1      )

 cart.    s( 1) = (  1.0000000  0.0000000  0.0000000 )
                  (  0.0000000  1.0000000  0.0000000 )
                  (  0.0000000  0.0000000  1.0000000 )


      isym =  2     180 deg rotation - cart. axis [0,0,1]        

 cryst.   s( 2) = (     0         -1          1      )
                  (     0         -1          0      )
                  (     1         -1          0      )

 cart.    s( 2) = ( -1.0000000  0.0000000  0.0000000 )
                  (  0.0000000 -1.0000000  0.0000000 )
                  (  0.0000000  0.0000000  1.0000000 )


      isym =  3     180 deg rotation - cart. axis [0,1,0]        

 cryst.   s( 3) = (    -1          0          0      )
                  (    -1          0          1      )
                  (    -1          1          0      )

 cart.    s( 3) = ( -1.0000000  0.0000000  0.0000000 )
                  (  0.0000000  1.0000000  0.0000000 )
                  (  0.0000000  0.0000000 -1.0000000 )


      isym =  4     180 deg rotation - cart. axis [1,0,0]        

 cryst.   s( 4) = (     0          1         -1      )
                  (     1          0         -1      )
                  (     0          0         -1      )

 cart.    s( 4) = (  1.0000000  0.0000000  0.0000000 )
                  (  0.0000000 -1.0000000  0.0000000 )
                  (  0.0000000  0.0000000 -1.0000000 )


      isym =  5     inversion                                    

 cryst.   s( 5) = (    -1          0          0      )
                  (     0         -1          0      )
                  (     0          0         -1      )

 cart.    s( 5) = ( -1.0000000  0.0000000  0.0000000 )
                  (  0.0000000 -1.0000000  0.0000000 )
                  (  0.0000000  0.0000000 -1.0000000 )


      isym =  6     inv. 180 deg rotation - cart. axis [0,0,1]   

 cryst.   s( 6) = (     0          1         -1      )
                  (     0          1          0      )
                  (    -1          1          0      )

 cart.    s( 6) = (  1.0000000  0.0000000  0.0000000 )
                  (  0.0000000  1.0000000  0.0000000 )
                  (  0.0000000  0.0000000 -1.0000000 )


      isym =  7     inv. 180 deg rotation - cart. axis [0,1,0]   

 cryst.   s( 7) = (     1          0          0      )
                  (     1          0         -1      )
                  (     1         -1          0      )

 cart.    s( 7) = (  1.0000000  0.0000000  0.0000000 )
                  (  0.0000000 -1.0000000  0.0000000 )
                  (  0.0000000  0.0000000  1.0000000 )


      isym =  8     inv. 180 deg rotation - cart. axis [1,0,0]   

 cryst.   s( 8) = (     0         -1          1      )
                  (    -1          0          1      )
                  (     0          0          1      )

 cart.    s( 8) = ( -1.0000000  0.0000000  0.0000000 )
                  (  0.0000000  1.0000000  0.0000000 )
                  (  0.0000000  0.0000000  1.0000000 )


     point group D_2h (mmm) 
     there are  8 classes
     the character table:

       E     C2    C2'   C2''  i     s_v   s_v'  s_v''
A_g    1.00  1.00  1.00  1.00  1.00  1.00  1.00  1.00
B_1g   1.00  1.00 -1.00 -1.00  1.00  1.00 -1.00 -1.00
B_2g   1.00 -1.00  1.00 -1.00  1.00 -1.00  1.00 -1.00
B_3g   1.00 -1.00 -1.00  1.00  1.00 -1.00 -1.00  1.00
A_u    1.00  1.00  1.00  1.00 -1.00 -1.00 -1.00 -1.00
B_1u   1.00  1.00 -1.00 -1.00 -1.00 -1.00  1.00  1.00
B_2u   1.00 -1.00  1.00 -1.00 -1.00  1.00 -1.00  1.00
B_3u   1.00 -1.00 -1.00  1.00 -1.00  1.00  1.00 -1.00

     the symmetry operations in each class and the name of the first element:

     E        1
          identity                                               
     C2       2
          180 deg rotation - cart. axis [0,0,1]                  
     C2'      4
          180 deg rotation - cart. axis [1,0,0]                  
     C2''     3
          180 deg rotation - cart. axis [0,1,0]                  
     i        5
          inversion                                              
     s_v      6
          inv. 180 deg rotation - cart. axis [0,0,1]             
     s_v'     8
          inv. 180 deg rotation - cart. axis [1,0,0]             
     s_v''    7
          inv. 180 deg rotation - cart. axis [0,1,0]             

   Cartesian axes

     site n.     atom                  positions (alat units)
         1        C      tau(   1) = (   0.0000000   0.0000000   0.0000000  )

   Crystallographic axes

     site n.     atom                  positions (cryst. coord.)
         1        C      tau(   1) = (  0.0000000  0.0000000  0.0000000  )

     number of k points=     8  Gaussian smearing, width (Ry)=  0.0050
                       cart. coord. in units 2pi/alat
        k(    1) = (   0.5686000  -0.0000000   0.4200000), wk =   0.2500000
        k(    2) = (   0.4314000   0.5600000   0.0000000), wk =   0.2500000
        k(    3) = (   0.5000000   0.2800000   0.2100000), wk =   0.2500000
        k(    4) = (   0.0000000   0.5600000   0.4200000), wk =   0.2500000
        k(    5) = (   0.7450000   0.0000000   0.0000000), wk =   0.2500000
        k(    6) = (   0.2550000   0.5600000   0.4200000), wk =   0.2500000
        k(    7) = (   0.0000000   0.5600000   0.0000000), wk =   0.2500000
        k(    8) = (   0.0000000   0.0000000   0.4200000), wk =   0.2500000

                       cryst. coord.
        k(    1) = (   0.7843000   0.2843000   0.5000000), wk =   0.2500000
        k(    2) = (   0.2157000   0.7157000   0.5000000), wk =   0.2500000
        k(    3) = (   0.5000000   0.5000000   0.5000000), wk =   0.2500000
        k(    4) = (   0.5000000   0.5000000   1.0000000), wk =   0.2500000
        k(    5) = (   0.3725000   0.3725000   0.0000000), wk =   0.2500000
        k(    6) = (   0.6275000   0.6275000   1.0000000), wk =   0.2500000
        k(    7) = (   0.0000000   0.5000000   0.5000000), wk =   0.2500000
        k(    8) = (   0.5000000   0.0000000   0.5000000), wk =   0.2500000

     Dense  grid:    29487 G-vectors     FFT dimensions: (  50,  40,  60)

     Dynamical RAM for                 wfc:       0.34 MB

     Dynamical RAM for     wfc (w. buffer):       0.34 MB

     Dynamical RAM for           str. fact:       0.45 MB

     Dynamical RAM for           local pot:       0.00 MB

     Dynamical RAM for          nlocal pot:       0.45 MB

     Dynamical RAM for                qrad:       0.41 MB

     Dynamical RAM for          rho,v,vnew:       4.10 MB

     Dynamical RAM for           G-vectors:       1.91 MB

     Dynamical RAM for          h,s,v(r/c):       0.01 MB

     Dynamical RAM for          <psi|beta>:       0.00 MB

     Dynamical RAM for                 psi:       0.68 MB

     Dynamical RAM for                hpsi:       0.68 MB

     Dynamical RAM for      wfcinit/wfcrot:       0.68 MB

     Estimated static dynamical RAM per process >      13.13 MB

     Estimated max dynamical RAM per process >      14.49 MB

     The potential is recalculated from file :
     sweeps/ORCF1_10/ORCF1_03.save/charge-density

     Starting wfcs are    4 randomized atomic wfcs +    2 random wfcs

     Band Structure Calculation
     Davidson diagonalization with overlap

     Computing kpt #:     1  of     8
     total cpu time spent up to now is        0.6 secs

     Computing kpt #:     2  of     8
     total cpu time spent up to now is        1.1 secs

     Computing kpt #:     3  of     8
     total cpu time spent up to now is        1.5 secs

     Computing kpt #:     4  of     8
     total cpu time spent up to now is        2.0 secs

     Computing kpt #:     5  of     8
     total cpu time spent up to now is        2.6 secs

     Computing kpt #:     6  of     8
     total cpu time spent up to now is        3.1 secs

     Computing kpt #:     7  of     8
     total cpu time spent up to now is        3.4 secs

     Computing kpt #:     8  of     8
     total cpu time spent up to now is        3.7 secs

     ethr =  2.50E-10,  avg # of iterations = 29.1

     total cpu time spent up to now is        3.7 secs

     End of band structure calculation

          k = 0.5686-0.0000 0.4200 (  3670 PWs)   bands (ev):

   -11.1588  -3.7940  -3.2281  -2.3683   6.3141   7.0483

          k = 0.4314 0.5600 0.0000 (  3670 PWs)   bands (ev):

   -11.1588  -3.7940  -3.2281  -2.3683   6.3141   7.0483

          k = 0.5000 0.2800 0.2100 (  3680 PWs)   bands (ev):

   -11.2159  -4.1851  -2.4629  -2.3846   5.4830   7.2313

          k = 0.0000 0.5600 0.4200 (  3694 PWs)   bands (ev):

   -11.2438  -4.0910  -2.6628  -2.3471   4.9836   7.3156

          k = 0.7450 0.0000 0.0000 (  3672 PWs)   bands (ev):

   -11.1499  -3.7114  -3.2405  -2.4985   5.7812   7.7322

          k = 0.2550 0.5600 0.4200 (  3672 PWs)   bands (ev):

   -11.1499  -3.7114  -3.2405  -2.4985   5.7812   7.7322

          k = 0.0000 0.5600 0.0000 (  3680 PWs)   bands (ev):

   -11.3086  -4.2597  -2.3003  -2.2173   5.8964   6.4372

          k = 0.0000 0.0000 0.4200 (  3706 PWs)   bands (ev):

   -11.8840  -3.4652  -2.0192  -1.9570   4.9072   5.5839

     Writing all to output data dir sweeps/ORCF1_10/ORCF1_03.save/ :
     XML data file, pseudopotentials, collected wavefunctions
 
     init_run     :      4.84s CPU      0.11s WALL (       1 calls)
     electrons    :    275.19s CPU      3.56s WALL (       1 calls)

     Called by init_run:
     wfcinit      :      0.07s CPU      0.00s WALL (       1 calls)
     wfcinit:atom :      0.17s CPU      0.00s WALL (       8 calls)
     wfcinit:wfcr :     14.36s CPU      0.19s WALL (       8 calls)
     potinit      :      1.79s CPU      0.03s WALL (       1 calls)
     hinit0       :      2.97s CPU      0.07s WALL (       1 calls)

     Called by electrons:
     c_bands      :    275.17s CPU      3.56s WALL (       1 calls)
     v_of_rho     :      1.58s CPU      0.02s WALL (       1 calls)
     v_h          :      0.15s CPU      0.00s WALL (       1 calls)
     v_xc         :      1.44s CPU      0.02s WALL (       1 calls)

     Called by c_bands:
     init_us_2    :      0.35s CPU      0.00s WALL (       8 calls)
     cegterg      :    259.79s CPU      3.35s WALL (      16 calls)

     Called by sum_band:

     Called by *egterg:
     cdiaghg      :      1.68s CPU      0.02s WALL (     241 calls)
     cegterg:over :      2.86s CPU      0.04s WALL (     233 calls)
     cegterg:upda :      3.40s CPU      0.04s WALL (     233 calls)
     cegterg:last :      2.42s CPU      0.03s WALL (     130 calls)
     h_psi        :    258.61s CPU      3.34s WALL (     257 calls)
     g_psi        :      1.42s CPU      0.02s WALL (     233 calls)

     Called by h_psi:
     h_psi:calbec :      2.06s CPU      0.03s WALL (     257 calls)
     vloc_psi     :    252.17s CPU      3.26s WALL (     257 calls)
     add_vuspsi   :      1.48s CPU      0.02s WALL (     257 calls)

     General routines
     calbec       :      1.64s CPU      0.02s WALL (     257 calls)
     fft          :      1.64s CPU      0.02s WALL (      10 calls)
     fftw         :    224.63s CPU      2.87s WALL (    1736 calls)
     davcio       :      0.13s CPU      0.00s WALL (      16 calls)
 
     Parallel routines
 
     PWSCF        :   4m43.63s CPU      3.73s WALL

 
   This run was terminated on:  11:45:42  17Jun2025            

=------------------------------------------------------------------------------=
   JOB DONE.
=------------------------------------------------------------------------------=
