
     Program PWSCF v.7.3.1 starts on 17Jun2025 at 11:45:35 

     This program is part of the open-source Quantum ESPRESSO suite
     for quantum simulation of materials; please cite
         "P. Giannozzi et al., J. Phys.:Condens. Matter 21 395502 (2009);
         "P. Giannozzi et al., J. Phys.:Condens. Matter 29 465901 (2017);
         "P. Giannozzi et al., J. Chem. Phys. 152 154105 (2020);
          URL http://www.quantum-espresso.org", 
     in publications or presentations arising from this work. More details at
     http://www.quantum-espresso.org/quote

     Parallel version (MPI & OpenMP), running on      96 processor cores
     Number of MPI processes:                 1
     Threads/MPI process:                    96

     MPI processes distributed on     1 nodes
     122122 MiB available memory on the printing compute node when the environment starts
 
     Waiting for input...
     Reading input from standard input
Warning: card &IONS ignored
Warning: card     ION_DYNAMICS = 'BFGS' ignored
Warning: card /&END ignored

     Current dimensions of program PWSCF are:
     Max number of different atomic species (ntypx) = 10
     Max number of k-points (npk) =  40000
     Max angular momentum in pseudopotentials (lmaxx) =  4

     Atomic positions and unit cell read from directory:
     sweeps/ORCF1_10/ORCF1_02.save/
 
 
     Subspace diagonalization in iterative solution of the eigenvalue problem:
     a serial algorithm will be used

 
     G-vector sticks info
     --------------------
     sticks:   dense  smooth     PW     G-vecs:    dense   smooth      PW
     Sum         639     639    205                 8783     8783    1535
 
     Using Slab Decomposition
 


     bravais-lattice index     =           10
     lattice parameter (alat)  =       4.3982  a.u.
     unit-cell volume          =      90.4350 (a.u.)^3
     number of atoms/cell      =            1
     number of atomic types    =            1
     number of electrons       =         4.00
     number of Kohn-Sham states=            6
     kinetic-energy cutoff     =      80.0000  Ry
     charge density cutoff     =     320.0000  Ry
     Exchange-correlation= PBE
                           (   1   4   3   4   0   0   0)

     celldm(1)=   4.398230  celldm(2)=   1.785714  celldm(3)=   2.380952
     celldm(4)=   0.000000  celldm(5)=   0.000000  celldm(6)=   0.000000

     crystal axes: (cart. coord. in units of alat)
               a(1) = (   0.500000   0.000000   1.190476 )  
               a(2) = (   0.500000   0.892857   0.000000 )  
               a(3) = (   0.000000   0.892857   1.190476 )  

     reciprocal axes: (cart. coord. in units 2 pi/alat)
               b(1) = (  1.000000 -0.560000  0.420000 )  
               b(2) = (  1.000000  0.560000 -0.420000 )  
               b(3) = ( -1.000000  0.560000  0.420000 )  


     PseudoPot. # 1 for C  read from file:
     ./C_ONCV_PBE_sr.upf
     MD5 check sum: b68b6074392897e22e8b22f1bd7aa93e
     Pseudo is Norm-conserving, Zval =  4.0
     Generated using ONCVPSP code by D. R. Hamann
     Using radial grid of 1248 points,  4 beta functions with: 
                l(1) =   0
                l(2) =   0
                l(3) =   1
                l(4) =   1

     atomic species   valence    mass     pseudopotential
     C                 4.00    10.81100     C ( 1.00)

      8 Sym. Ops., with inversion, found


                                    s                        frac. trans.

      isym =  1     identity                                     

 cryst.   s( 1) = (     1          0          0      )
                  (     0          1          0      )
                  (     0          0          1      )

 cart.    s( 1) = (  1.0000000  0.0000000  0.0000000 )
                  (  0.0000000  1.0000000  0.0000000 )
                  (  0.0000000  0.0000000  1.0000000 )


      isym =  2     180 deg rotation - cart. axis [0,0,1]        

 cryst.   s( 2) = (     0         -1          1      )
                  (     0         -1          0      )
                  (     1         -1          0      )

 cart.    s( 2) = ( -1.0000000  0.0000000  0.0000000 )
                  (  0.0000000 -1.0000000  0.0000000 )
                  (  0.0000000  0.0000000  1.0000000 )


      isym =  3     180 deg rotation - cart. axis [0,1,0]        

 cryst.   s( 3) = (    -1          0          0      )
                  (    -1          0          1      )
                  (    -1          1          0      )

 cart.    s( 3) = ( -1.0000000  0.0000000  0.0000000 )
                  (  0.0000000  1.0000000  0.0000000 )
                  (  0.0000000  0.0000000 -1.0000000 )


      isym =  4     180 deg rotation - cart. axis [1,0,0]        

 cryst.   s( 4) = (     0          1         -1      )
                  (     1          0         -1      )
                  (     0          0         -1      )

 cart.    s( 4) = (  1.0000000  0.0000000  0.0000000 )
                  (  0.0000000 -1.0000000  0.0000000 )
                  (  0.0000000  0.0000000 -1.0000000 )


      isym =  5     inversion                                    

 cryst.   s( 5) = (    -1          0          0      )
                  (     0         -1          0      )
                  (     0          0         -1      )

 cart.    s( 5) = ( -1.0000000  0.0000000  0.0000000 )
                  (  0.0000000 -1.0000000  0.0000000 )
                  (  0.0000000  0.0000000 -1.0000000 )


      isym =  6     inv. 180 deg rotation - cart. axis [0,0,1]   

 cryst.   s( 6) = (     0          1         -1      )
                  (     0          1          0      )
                  (    -1          1          0      )

 cart.    s( 6) = (  1.0000000  0.0000000  0.0000000 )
                  (  0.0000000  1.0000000  0.0000000 )
                  (  0.0000000  0.0000000 -1.0000000 )


      isym =  7     inv. 180 deg rotation - cart. axis [0,1,0]   

 cryst.   s( 7) = (     1          0          0      )
                  (     1          0         -1      )
                  (     1         -1          0      )

 cart.    s( 7) = (  1.0000000  0.0000000  0.0000000 )
                  (  0.0000000 -1.0000000  0.0000000 )
                  (  0.0000000  0.0000000  1.0000000 )


      isym =  8     inv. 180 deg rotation - cart. axis [1,0,0]   

 cryst.   s( 8) = (     0         -1          1      )
                  (    -1          0          1      )
                  (     0          0          1      )

 cart.    s( 8) = ( -1.0000000  0.0000000  0.0000000 )
                  (  0.0000000  1.0000000  0.0000000 )
                  (  0.0000000  0.0000000  1.0000000 )


     point group D_2h (mmm) 
     there are  8 classes
     the character table:

       E     C2    C2'   C2''  i     s_v   s_v'  s_v''
A_g    1.00  1.00  1.00  1.00  1.00  1.00  1.00  1.00
B_1g   1.00  1.00 -1.00 -1.00  1.00  1.00 -1.00 -1.00
B_2g   1.00 -1.00  1.00 -1.00  1.00 -1.00  1.00 -1.00
B_3g   1.00 -1.00 -1.00  1.00  1.00 -1.00 -1.00  1.00
A_u    1.00  1.00  1.00  1.00 -1.00 -1.00 -1.00 -1.00
B_1u   1.00  1.00 -1.00 -1.00 -1.00 -1.00  1.00  1.00
B_2u   1.00 -1.00  1.00 -1.00 -1.00  1.00 -1.00  1.00
B_3u   1.00 -1.00 -1.00  1.00 -1.00  1.00  1.00 -1.00

     the symmetry operations in each class and the name of the first element:

     E        1
          identity                                               
     C2       2
          180 deg rotation - cart. axis [0,0,1]                  
     C2'      4
          180 deg rotation - cart. axis [1,0,0]                  
     C2''     3
          180 deg rotation - cart. axis [0,1,0]                  
     i        5
          inversion                                              
     s_v      6
          inv. 180 deg rotation - cart. axis [0,0,1]             
     s_v'     8
          inv. 180 deg rotation - cart. axis [1,0,0]             
     s_v''    7
          inv. 180 deg rotation - cart. axis [0,1,0]             

   Cartesian axes

     site n.     atom                  positions (alat units)
         1        C      tau(   1) = (   0.0000000   0.0000000   0.0000000  )

   Crystallographic axes

     site n.     atom                  positions (cryst. coord.)
         1        C      tau(   1) = (  0.0000000  0.0000000  0.0000000  )

     number of k points=     8  Gaussian smearing, width (Ry)=  0.0050
                       cart. coord. in units 2pi/alat
        k(    1) = (   0.5686000  -0.0000000   0.4200000), wk =   0.2500000
        k(    2) = (   0.4314000   0.5600000  -0.0000000), wk =   0.2500000
        k(    3) = (   0.5000000   0.2800000   0.2100000), wk =   0.2500000
        k(    4) = (   0.0000000   0.5600000   0.4200000), wk =   0.2500000
        k(    5) = (   0.7450000   0.0000000   0.0000000), wk =   0.2500000
        k(    6) = (   0.2550000   0.5600000   0.4200000), wk =   0.2500000
        k(    7) = (   0.0000000   0.5600000   0.0000000), wk =   0.2500000
        k(    8) = (   0.0000000   0.0000000   0.4200000), wk =   0.2500000

                       cryst. coord.
        k(    1) = (   0.7843000   0.2843000   0.5000000), wk =   0.2500000
        k(    2) = (   0.2157000   0.7157000   0.5000000), wk =   0.2500000
        k(    3) = (   0.5000000   0.5000000   0.5000000), wk =   0.2500000
        k(    4) = (   0.5000000   0.5000000   1.0000000), wk =   0.2500000
        k(    5) = (   0.3725000   0.3725000   0.0000000), wk =   0.2500000
        k(    6) = (   0.6275000   0.6275000   1.0000000), wk =   0.2500000
        k(    7) = (   0.0000000   0.5000000   0.5000000), wk =   0.2500000
        k(    8) = (   0.5000000   0.0000000   0.5000000), wk =   0.2500000

     Dense  grid:     8783 G-vectors     FFT dimensions: (  36,  25,  40)

     Dynamical RAM for                 wfc:       0.10 MB

     Dynamical RAM for     wfc (w. buffer):       0.10 MB

     Dynamical RAM for           str. fact:       0.13 MB

     Dynamical RAM for           local pot:       0.00 MB

     Dynamical RAM for          nlocal pot:       0.13 MB

     Dynamical RAM for                qrad:       0.41 MB

     Dynamical RAM for          rho,v,vnew:       1.23 MB

     Dynamical RAM for           G-vectors:       0.57 MB

     Dynamical RAM for          h,s,v(r/c):       0.01 MB

     Dynamical RAM for          <psi|beta>:       0.00 MB

     Dynamical RAM for                 psi:       0.20 MB

     Dynamical RAM for                hpsi:       0.20 MB

     Dynamical RAM for      wfcinit/wfcrot:       0.20 MB

     Estimated static dynamical RAM per process >       4.21 MB

     Estimated max dynamical RAM per process >       4.62 MB

     The potential is recalculated from file :
     sweeps/ORCF1_10/ORCF1_02.save/charge-density

     Starting wfcs are    4 randomized atomic wfcs +    2 random wfcs

     Band Structure Calculation
     Davidson diagonalization with overlap

     Computing kpt #:     1  of     8
     total cpu time spent up to now is        0.3 secs

     Computing kpt #:     2  of     8
     total cpu time spent up to now is        0.5 secs

     Computing kpt #:     3  of     8
     total cpu time spent up to now is        0.6 secs

     Computing kpt #:     4  of     8
     total cpu time spent up to now is        0.8 secs

     Computing kpt #:     5  of     8
     total cpu time spent up to now is        1.0 secs

     Computing kpt #:     6  of     8
     total cpu time spent up to now is        1.2 secs

     Computing kpt #:     7  of     8
     total cpu time spent up to now is        1.4 secs

     Computing kpt #:     8  of     8
     total cpu time spent up to now is        1.6 secs

     ethr =  2.50E-10,  avg # of iterations = 21.4

     total cpu time spent up to now is        1.6 secs

     End of band structure calculation

          k = 0.5686-0.0000 0.4200 (  1092 PWs)   bands (ev):

    -3.0234   0.1162   1.9647   4.5974  17.7665  22.5780

          k = 0.4314 0.5600-0.0000 (  1092 PWs)   bands (ev):

    -3.0234   0.1162   1.9647   4.5974  17.7665  22.5780

          k = 0.5000 0.2800 0.2100 (  1092 PWs)   bands (ev):

    -3.7412  -1.6492   4.7614   6.5868  15.8914  20.1003

          k = 0.0000 0.5600 0.4200 (  1098 PWs)   bands (ev):

    -3.5763  -1.1485   3.1051   6.9924  12.8525  20.3257

          k = 0.7450 0.0000 0.0000 (  1084 PWs)   bands (ev):

    -2.6676   0.2766   2.1735   4.0252  14.6497  22.8645

          k = 0.2550 0.5600 0.4200 (  1084 PWs)   bands (ev):

    -2.6676   0.2766   2.1735   4.0252  14.6497  22.8645

          k = 0.0000 0.5600 0.0000 (  1088 PWs)   bands (ev):

    -4.7005  -2.1101   5.9716   7.3529  21.0269  21.4090

          k = 0.0000 0.0000 0.4200 (  1114 PWs)   bands (ev):

    -9.0662  -1.0621   8.9672   9.1575  20.3087  25.9850

     Writing all to output data dir sweeps/ORCF1_10/ORCF1_02.save/ :
     XML data file, pseudopotentials, collected wavefunctions
 
     init_run     :      1.96s CPU      0.07s WALL (       1 calls)
     electrons    :     74.37s CPU      1.49s WALL (       1 calls)

     Called by init_run:
     wfcinit      :      0.04s CPU      0.00s WALL (       1 calls)
     wfcinit:atom :      0.09s CPU      0.00s WALL (       8 calls)
     wfcinit:wfcr :      4.70s CPU      0.09s WALL (       8 calls)
     potinit      :      0.38s CPU      0.01s WALL (       1 calls)
     hinit0       :      1.53s CPU      0.06s WALL (       1 calls)

     Called by electrons:
     c_bands      :     74.36s CPU      1.49s WALL (       1 calls)
     v_of_rho     :      0.33s CPU      0.01s WALL (       1 calls)
     v_h          :      0.04s CPU      0.00s WALL (       1 calls)
     v_xc         :      0.29s CPU      0.01s WALL (       1 calls)

     Called by c_bands:
     init_us_2    :      0.14s CPU      0.00s WALL (       8 calls)
     cegterg      :     69.09s CPU      1.38s WALL (      11 calls)

     Called by sum_band:

     Called by *egterg:
     cdiaghg      :      0.77s CPU      0.02s WALL (     179 calls)
     cegterg:over :      0.54s CPU      0.01s WALL (     171 calls)
     cegterg:upda :      2.86s CPU      0.06s WALL (     171 calls)
     cegterg:last :      0.38s CPU      0.01s WALL (     101 calls)
     h_psi        :     65.49s CPU      1.31s WALL (     190 calls)
     g_psi        :      1.51s CPU      0.03s WALL (     171 calls)

     Called by h_psi:
     h_psi:calbec :      0.45s CPU      0.01s WALL (     190 calls)
     vloc_psi     :     62.67s CPU      1.25s WALL (     190 calls)
     add_vuspsi   :      0.37s CPU      0.01s WALL (     190 calls)

     General routines
     calbec       :      0.33s CPU      0.01s WALL (     190 calls)
     fft          :      0.11s CPU      0.00s WALL (      10 calls)
     fftw         :     31.50s CPU      0.63s WALL (    1350 calls)
     davcio       :      0.04s CPU      0.00s WALL (      16 calls)
 
     Parallel routines
 
     PWSCF        :   1m18.30s CPU      1.62s WALL

 
   This run was terminated on:  11:45:36  17Jun2025            

=------------------------------------------------------------------------------=
   JOB DONE.
=------------------------------------------------------------------------------=
