
     Program PWSCF v.7.3.1 starts on 17Jun2025 at 11:45:37 

     This program is part of the open-source Quantum ESPRESSO suite
     for quantum simulation of materials; please cite
         "P. Giannozzi et al., J. Phys.:Condens. Matter 21 395502 (2009);
         "P. Giannozzi et al., J. Phys.:Condens. Matter 29 465901 (2017);
         "P. Giannozzi et al., J. Chem. Phys. 152 154105 (2020);
          URL http://www.quantum-espresso.org", 
     in publications or presentations arising from this work. More details at
     http://www.quantum-espresso.org/quote

     Parallel version (MPI & OpenMP), running on      96 processor cores
     Number of MPI processes:                 1
     Threads/MPI process:                    96

     MPI processes distributed on     1 nodes
     122102 MiB available memory on the printing compute node when the environment starts
 
     Waiting for input...
     Reading input from standard input

     Current dimensions of program PWSCF are:
     Max number of different atomic species (ntypx) = 10
     Max number of k-points (npk) =  40000
     Max angular momentum in pseudopotentials (lmaxx) =  4
 
     Subspace diagonalization in iterative solution of the eigenvalue problem:
     a serial algorithm will be used

 
     G-vector sticks info
     --------------------
     sticks:   dense  smooth     PW     G-vecs:    dense   smooth      PW
     Sum        1445    1445    357                29487    29487    3687
 
     Using Slab Decomposition
 


     bravais-lattice index     =           10
     lattice parameter (alat)  =       6.5973  a.u.
     unit-cell volume          =     305.2180 (a.u.)^3
     number of atoms/cell      =            1
     number of atomic types    =            1
     number of electrons       =         4.00
     number of Kohn-Sham states=            6
     kinetic-energy cutoff     =      80.0000  Ry
     charge density cutoff     =     320.0000  Ry
     scf convergence threshold =      1.0E-08
     mixing beta               =       0.7000
     number of iterations used =            8  plain     mixing
     Exchange-correlation= PBE
                           (   1   4   3   4   0   0   0)

     celldm(1)=   6.597345  celldm(2)=   1.785714  celldm(3)=   2.380952
     celldm(4)=   0.000000  celldm(5)=   0.000000  celldm(6)=   0.000000

     crystal axes: (cart. coord. in units of alat)
               a(1) = (   0.500000   0.000000   1.190476 )  
               a(2) = (   0.500000   0.892857   0.000000 )  
               a(3) = (   0.000000   0.892857   1.190476 )  

     reciprocal axes: (cart. coord. in units 2 pi/alat)
               b(1) = (  1.000000 -0.560000  0.420000 )  
               b(2) = (  1.000000  0.560000 -0.420000 )  
               b(3) = ( -1.000000  0.560000  0.420000 )  


     PseudoPot. # 1 for C  read from file:
     ./C_ONCV_PBE_sr.upf
     MD5 check sum: b68b6074392897e22e8b22f1bd7aa93e
     Pseudo is Norm-conserving, Zval =  4.0
     Generated using ONCVPSP code by D. R. Hamann
     Using radial grid of 1248 points,  4 beta functions with: 
                l(1) =   0
                l(2) =   0
                l(3) =   1
                l(4) =   1

     atomic species   valence    mass     pseudopotential
     C                 4.00    10.81100     C ( 1.00)

      8 Sym. Ops., with inversion, found


                                    s                        frac. trans.

      isym =  1     identity                                     

 cryst.   s( 1) = (     1          0          0      )
                  (     0          1          0      )
                  (     0          0          1      )

 cart.    s( 1) = (  1.0000000  0.0000000  0.0000000 )
                  (  0.0000000  1.0000000  0.0000000 )
                  (  0.0000000  0.0000000  1.0000000 )


      isym =  2     180 deg rotation - cart. axis [0,0,1]        

 cryst.   s( 2) = (     0         -1          1      )
                  (     0         -1          0      )
                  (     1         -1          0      )

 cart.    s( 2) = ( -1.0000000  0.0000000  0.0000000 )
                  (  0.0000000 -1.0000000  0.0000000 )
                  (  0.0000000  0.0000000  1.0000000 )


      isym =  3     180 deg rotation - cart. axis [0,1,0]        

 cryst.   s( 3) = (    -1          0          0      )
                  (    -1          0          1      )
                  (    -1          1          0      )

 cart.    s( 3) = ( -1.0000000  0.0000000  0.0000000 )
                  (  0.0000000  1.0000000  0.0000000 )
                  (  0.0000000  0.0000000 -1.0000000 )


      isym =  4     180 deg rotation - cart. axis [1,0,0]        

 cryst.   s( 4) = (     0          1         -1      )
                  (     1          0         -1      )
                  (     0          0         -1      )

 cart.    s( 4) = (  1.0000000  0.0000000  0.0000000 )
                  (  0.0000000 -1.0000000  0.0000000 )
                  (  0.0000000  0.0000000 -1.0000000 )


      isym =  5     inversion                                    

 cryst.   s( 5) = (    -1          0          0      )
                  (     0         -1          0      )
                  (     0          0         -1      )

 cart.    s( 5) = ( -1.0000000  0.0000000  0.0000000 )
                  (  0.0000000 -1.0000000  0.0000000 )
                  (  0.0000000  0.0000000 -1.0000000 )


      isym =  6     inv. 180 deg rotation - cart. axis [0,0,1]   

 cryst.   s( 6) = (     0          1         -1      )
                  (     0          1          0      )
                  (    -1          1          0      )

 cart.    s( 6) = (  1.0000000  0.0000000  0.0000000 )
                  (  0.0000000  1.0000000  0.0000000 )
                  (  0.0000000  0.0000000 -1.0000000 )


      isym =  7     inv. 180 deg rotation - cart. axis [0,1,0]   

 cryst.   s( 7) = (     1          0          0      )
                  (     1          0         -1      )
                  (     1         -1          0      )

 cart.    s( 7) = (  1.0000000  0.0000000  0.0000000 )
                  (  0.0000000 -1.0000000  0.0000000 )
                  (  0.0000000  0.0000000  1.0000000 )


      isym =  8     inv. 180 deg rotation - cart. axis [1,0,0]   

 cryst.   s( 8) = (     0         -1          1      )
                  (    -1          0          1      )
                  (     0          0          1      )

 cart.    s( 8) = ( -1.0000000  0.0000000  0.0000000 )
                  (  0.0000000  1.0000000  0.0000000 )
                  (  0.0000000  0.0000000  1.0000000 )


     point group D_2h (mmm) 
     there are  8 classes
     the character table:

       E     C2    C2'   C2''  i     s_v   s_v'  s_v''
A_g    1.00  1.00  1.00  1.00  1.00  1.00  1.00  1.00
B_1g   1.00  1.00 -1.00 -1.00  1.00  1.00 -1.00 -1.00
B_2g   1.00 -1.00  1.00 -1.00  1.00 -1.00  1.00 -1.00
B_3g   1.00 -1.00 -1.00  1.00  1.00 -1.00 -1.00  1.00
A_u    1.00  1.00  1.00  1.00 -1.00 -1.00 -1.00 -1.00
B_1u   1.00  1.00 -1.00 -1.00 -1.00 -1.00  1.00  1.00
B_2u   1.00 -1.00  1.00 -1.00 -1.00  1.00 -1.00  1.00
B_3u   1.00 -1.00 -1.00  1.00 -1.00  1.00  1.00 -1.00

     the symmetry operations in each class and the name of the first element:

     E        1
          identity                                               
     C2       2
          180 deg rotation - cart. axis [0,0,1]                  
     C2'      4
          180 deg rotation - cart. axis [1,0,0]                  
     C2''     3
          180 deg rotation - cart. axis [0,1,0]                  
     i        5
          inversion                                              
     s_v      6
          inv. 180 deg rotation - cart. axis [0,0,1]             
     s_v'     8
          inv. 180 deg rotation - cart. axis [1,0,0]             
     s_v''    7
          inv. 180 deg rotation - cart. axis [0,1,0]             

   Cartesian axes

     site n.     atom                  positions (alat units)
         1        C      tau(   1) = (   0.0000000   0.0000000   0.0000000  )

   Crystallographic axes

     site n.     atom                  positions (cryst. coord.)
         1        C      tau(   1) = (  0.0000000  0.0000000  0.0000000  )

     number of k points=     1  Gaussian smearing, width (Ry)=  0.0050
                       cart. coord. in units 2pi/alat
        k(    1) = (   0.0000000   0.0000000   0.0000000), wk =   2.0000000

                       cryst. coord.
        k(    1) = (   0.0000000   0.0000000   0.0000000), wk =   2.0000000

     Dense  grid:    29487 G-vectors     FFT dimensions: (  50,  40,  60)

     Dynamical RAM for                 wfc:       0.34 MB

     Dynamical RAM for     wfc (w. buffer):       0.34 MB

     Dynamical RAM for           str. fact:       0.45 MB

     Dynamical RAM for           local pot:       0.00 MB

     Dynamical RAM for          nlocal pot:       0.45 MB

     Dynamical RAM for                qrad:       0.41 MB

     Dynamical RAM for          rho,v,vnew:       4.10 MB

     Dynamical RAM for               rhoin:       1.37 MB

     Dynamical RAM for            rho*nmix:       7.20 MB

     Dynamical RAM for           G-vectors:       1.91 MB

     Dynamical RAM for          h,s,v(r/c):       0.01 MB

     Dynamical RAM for          <psi|beta>:       0.00 MB

     Dynamical RAM for                 psi:       0.68 MB

     Dynamical RAM for                hpsi:       0.68 MB

     Dynamical RAM for      wfcinit/wfcrot:       0.68 MB

     Estimated static dynamical RAM per process >      14.50 MB

     Estimated max dynamical RAM per process >      23.06 MB

     Initial potential from superposition of free atoms

     starting charge       4.0000, renormalised to       4.0000
     Starting wfcs are    4 randomized atomic wfcs +    2 random wfcs

     total cpu time spent up to now is        0.2 secs

     Self-consistent Calculation

     iteration #  1     ecut=    80.00 Ry     beta= 0.70
     Davidson diagonalization with overlap

---- Real-time Memory Report at c_bands before calling an iterative solver
           201 MiB given to the printing process from OS
             0 MiB allocation reported by mallinfo(arena+hblkhd)
        121998 MiB available memory on the node where the printing process lives
------------------
     ethr =  1.00E-02,  avg # of iterations =  5.0

     total cpu time spent up to now is        0.5 secs

     total energy              =     -10.77491817 Ry
     estimated scf accuracy    <       0.14781456 Ry

     iteration #  2     ecut=    80.00 Ry     beta= 0.70
     Davidson diagonalization with overlap

---- Real-time Memory Report at c_bands before calling an iterative solver
           214 MiB given to the printing process from OS
             0 MiB allocation reported by mallinfo(arena+hblkhd)
        121998 MiB available memory on the node where the printing process lives
------------------
     ethr =  3.70E-03,  avg # of iterations =  1.0

     total cpu time spent up to now is        0.6 secs

     total energy              =     -10.77892509 Ry
     estimated scf accuracy    <       0.00921085 Ry

     iteration #  3     ecut=    80.00 Ry     beta= 0.70
     Davidson diagonalization with overlap

---- Real-time Memory Report at c_bands before calling an iterative solver
           216 MiB given to the printing process from OS
             0 MiB allocation reported by mallinfo(arena+hblkhd)
        121996 MiB available memory on the node where the printing process lives
------------------
     ethr =  2.30E-04,  avg # of iterations =  1.0

     total cpu time spent up to now is        0.8 secs

     total energy              =     -10.77943046 Ry
     estimated scf accuracy    <       0.00006693 Ry

     iteration #  4     ecut=    80.00 Ry     beta= 0.70
     Davidson diagonalization with overlap

---- Real-time Memory Report at c_bands before calling an iterative solver
           216 MiB given to the printing process from OS
             0 MiB allocation reported by mallinfo(arena+hblkhd)
        121997 MiB available memory on the node where the printing process lives
------------------
     ethr =  1.67E-06,  avg # of iterations =  5.0

     total cpu time spent up to now is        1.1 secs

     total energy              =     -10.77946404 Ry
     estimated scf accuracy    <       0.00001678 Ry

     iteration #  5     ecut=    80.00 Ry     beta= 0.70
     Davidson diagonalization with overlap

---- Real-time Memory Report at c_bands before calling an iterative solver
           216 MiB given to the printing process from OS
             0 MiB allocation reported by mallinfo(arena+hblkhd)
        121993 MiB available memory on the node where the printing process lives
------------------
     ethr =  4.19E-07,  avg # of iterations =  1.0

     total cpu time spent up to now is        1.3 secs

     total energy              =     -10.77946661 Ry
     estimated scf accuracy    <       0.00000018 Ry

     iteration #  6     ecut=    80.00 Ry     beta= 0.70
     Davidson diagonalization with overlap

---- Real-time Memory Report at c_bands before calling an iterative solver
           217 MiB given to the printing process from OS
             0 MiB allocation reported by mallinfo(arena+hblkhd)
        121991 MiB available memory on the node where the printing process lives
------------------
     ethr =  4.61E-09,  avg # of iterations =  2.0

     total cpu time spent up to now is        1.4 secs

     End of self-consistent calculation

          k = 0.0000 0.0000 0.0000 (  3687 PWs)   bands (ev):

   -11.9886  -2.6357  -2.0328  -1.9253   2.6651   8.3729

     occupation numbers 
     1.0000   1.0000   0.0000   0.0000   0.0000   0.0000

     the Fermi energy is    -2.3342 ev

!    total energy              =     -10.77946670 Ry
     estimated scf accuracy    <          6.5E-09 Ry
     smearing contrib. (-TS)   =      -0.00000000 Ry
     internal energy E=F+TS    =     -10.77946670 Ry

     The total energy is F=E-TS. E is the sum of the following terms:
     one-electron contribution =      -3.99459519 Ry
     hartree contribution      =       2.78772922 Ry
     xc contribution           =      -2.89434091 Ry
     ewald contribution        =      -6.67825982 Ry

     convergence has been achieved in   6 iterations

     Writing all to output data dir sweeps/ORCF1_10/ORCF1_03.save/ :
     XML data file, charge density, pseudopotentials, collected wavefunctions
 
     init_run     :     10.90s CPU      0.23s WALL (       1 calls)
     electrons    :     74.10s CPU      1.18s WALL (       1 calls)

     Called by init_run:
     wfcinit      :      2.64s CPU      0.05s WALL (       1 calls)
     wfcinit:atom :      0.04s CPU      0.00s WALL (       1 calls)
     wfcinit:wfcr :      2.49s CPU      0.04s WALL (       1 calls)
     potinit      :      5.39s CPU      0.10s WALL (       1 calls)
     hinit0       :      2.86s CPU      0.08s WALL (       1 calls)

     Called by electrons:
     c_bands      :     41.07s CPU      0.66s WALL (       6 calls)
     sum_band     :     13.37s CPU      0.21s WALL (       6 calls)
     v_of_rho     :     18.31s CPU      0.30s WALL (       7 calls)
     v_h          :      5.99s CPU      0.10s WALL (       7 calls)
     v_xc         :     12.31s CPU      0.20s WALL (       7 calls)
     mix_rho      :      2.82s CPU      0.04s WALL (       6 calls)

     Called by c_bands:
     init_us_2    :      1.06s CPU      0.02s WALL (      13 calls)
     cegterg      :     40.33s CPU      0.65s WALL (       6 calls)

     Called by sum_band:
     sum_band:wei :      0.01s CPU      0.00s WALL (       6 calls)
     sum_band:loo :      8.52s CPU      0.14s WALL (       6 calls)
     sum_band:buf :      0.00s CPU      0.00s WALL (       6 calls)
     sum_band:ini :      0.51s CPU      0.01s WALL (       6 calls)

     Called by *egterg:
     cdiaghg      :      0.14s CPU      0.00s WALL (      21 calls)
     cegterg:over :      0.18s CPU      0.00s WALL (      15 calls)
     cegterg:upda :      0.91s CPU      0.01s WALL (      15 calls)
     cegterg:last :      0.11s CPU      0.00s WALL (      11 calls)
     h_psi        :     40.72s CPU      0.66s WALL (      22 calls)
     g_psi        :      0.26s CPU      0.00s WALL (      15 calls)

     Called by h_psi:
     h_psi:calbec :      0.19s CPU      0.00s WALL (      22 calls)
     vloc_psi     :     39.87s CPU      0.64s WALL (      22 calls)
     add_vuspsi   :      0.17s CPU      0.00s WALL (      22 calls)

     General routines
     calbec       :      0.17s CPU      0.00s WALL (      22 calls)
     fft          :      5.64s CPU      0.09s WALL (      69 calls)
     ffts         :      0.43s CPU      0.01s WALL (       6 calls)
     fftw         :     21.68s CPU      0.35s WALL (     226 calls)
 
     Parallel routines
 
     PWSCF        :   1m26.89s CPU      1.46s WALL

 
   This run was terminated on:  11:45:38  17Jun2025            

=------------------------------------------------------------------------------=
   JOB DONE.
=------------------------------------------------------------------------------=
