
     Program PWSCF v.7.3.1 starts on 17Jun2025 at 11:47:47 

     This program is part of the open-source Quantum ESPRESSO suite
     for quantum simulation of materials; please cite
         "P. Giannozzi et al., J. Phys.:Condens. Matter 21 395502 (2009);
         "P. Giannozzi et al., J. Phys.:Condens. Matter 29 465901 (2017);
         "P. Giannozzi et al., J. Chem. Phys. 152 154105 (2020);
          URL http://www.quantum-espresso.org", 
     in publications or presentations arising from this work. More details at
     http://www.quantum-espresso.org/quote

     Parallel version (MPI & OpenMP), running on      96 processor cores
     Number of MPI processes:                 1
     Threads/MPI process:                    96

     MPI processes distributed on     1 nodes
     121971 MiB available memory on the printing compute node when the environment starts
 
     Waiting for input...
     Reading input from standard input
Warning: card &IONS ignored
Warning: card     ION_DYNAMICS = 'BFGS' ignored
Warning: card /&END ignored

     Current dimensions of program PWSCF are:
     Max number of different atomic species (ntypx) = 10
     Max number of k-points (npk) =  40000
     Max angular momentum in pseudopotentials (lmaxx) =  4

     Atomic positions and unit cell read from directory:
     sweeps/MCL_-12/MCL_02.save/
 
 
     Subspace diagonalization in iterative solution of the eigenvalue problem:
     a serial algorithm will be used

 
     G-vector sticks info
     --------------------
     sticks:   dense  smooth     PW     G-vecs:    dense   smooth      PW
     Sum        1305    1305    375                37485    37485    5781
 
     Using Slab Decomposition
 


     bravais-lattice index     =          -12
     lattice parameter (alat)  =       6.2832  a.u.
     unit-cell volume          =     387.6296 (a.u.)^3
     number of atoms/cell      =            1
     number of atomic types    =            1
     number of electrons       =         4.00
     number of Kohn-Sham states=            6
     kinetic-energy cutoff     =      80.0000  Ry
     charge density cutoff     =     320.0000  Ry
     Exchange-correlation= PBE
                           (   1   4   3   4   0   0   0)

     celldm(1)=   6.283185  celldm(2)=   1.300000  celldm(3)=   1.700000
     celldm(4)=   0.000000  celldm(5)=   0.707107  celldm(6)=   0.000000

     crystal axes: (cart. coord. in units of alat)
               a(1) = (   1.000000   0.000000   0.000000 )  
               a(2) = (   0.000000   1.300000   0.000000 )  
               a(3) = (   1.202082   0.000000   1.202082 )  

     reciprocal axes: (cart. coord. in units 2 pi/alat)
               b(1) = (  1.000000  0.000000 -1.000000 )  
               b(2) = (  0.000000  0.769231  0.000000 )  
               b(3) = (  0.000000  0.000000  0.831890 )  


     PseudoPot. # 1 for C  read from file:
     ./C_ONCV_PBE_sr.upf
     MD5 check sum: b68b6074392897e22e8b22f1bd7aa93e
     Pseudo is Norm-conserving, Zval =  4.0
     Generated using ONCVPSP code by D. R. Hamann
     Using radial grid of 1248 points,  4 beta functions with: 
                l(1) =   0
                l(2) =   0
                l(3) =   1
                l(4) =   1

     atomic species   valence    mass     pseudopotential
     C                 4.00    10.81100     C ( 1.00)

      4 Sym. Ops., with inversion, found


                                    s                        frac. trans.

      isym =  1     identity                                     

 cryst.   s( 1) = (     1          0          0      )
                  (     0          1          0      )
                  (     0          0          1      )

 cart.    s( 1) = (  1.0000000  0.0000000  0.0000000 )
                  (  0.0000000  1.0000000  0.0000000 )
                  (  0.0000000  0.0000000  1.0000000 )


      isym =  2     180 deg rotation - cart. axis [0,1,0]        

 cryst.   s( 2) = (    -1          0          0      )
                  (     0          1          0      )
                  (     0          0         -1      )

 cart.    s( 2) = ( -1.0000000  0.0000000  0.0000000 )
                  (  0.0000000  1.0000000  0.0000000 )
                  (  0.0000000  0.0000000 -1.0000000 )


      isym =  3     inversion                                    

 cryst.   s( 3) = (    -1          0          0      )
                  (     0         -1          0      )
                  (     0          0         -1      )

 cart.    s( 3) = ( -1.0000000  0.0000000  0.0000000 )
                  (  0.0000000 -1.0000000  0.0000000 )
                  (  0.0000000  0.0000000 -1.0000000 )


      isym =  4     inv. 180 deg rotation - cart. axis [0,1,0]   

 cryst.   s( 4) = (     1          0          0      )
                  (     0         -1          0      )
                  (     0          0          1      )

 cart.    s( 4) = (  1.0000000  0.0000000  0.0000000 )
                  (  0.0000000 -1.0000000  0.0000000 )
                  (  0.0000000  0.0000000  1.0000000 )


     point group C_2h (2/m) 
     there are  4 classes
     the character table:

       E     C2    i     s_h  
A_g    1.00  1.00  1.00  1.00
B_g    1.00 -1.00  1.00 -1.00
A_u    1.00  1.00 -1.00 -1.00
B_u    1.00 -1.00 -1.00  1.00

     the symmetry operations in each class and the name of the first element:

     E        1
          identity                                               
     C2       2
          180 deg rotation - cart. axis [0,1,0]                  
     i        3
          inversion                                              
     s_h      4
          inv. 180 deg rotation - cart. axis [0,1,0]             

   Cartesian axes

     site n.     atom                  positions (alat units)
         1        C      tau(   1) = (   0.0000000   0.0000000   0.0000000  )

   Crystallographic axes

     site n.     atom                  positions (cryst. coord.)
         1        C      tau(   1) = (  0.0000000  0.0000000  0.0000000  )

     number of k points=     5  Gaussian smearing, width (Ry)=  0.0050
                       cart. coord. in units 2pi/alat
        k(    1) = (   0.5000000   0.3846154  -0.0840548), wk =   0.4000000
        k(    2) = (   0.0000000   0.3846154   0.4159452), wk =   0.4000000
        k(    3) = (   0.5000000   0.0000000  -0.0840548), wk =   0.4000000
        k(    4) = (   0.0000000   0.3846154   0.0000000), wk =   0.4000000
        k(    5) = (  -0.0000000   0.0000000   0.4159452), wk =   0.4000000

                       cryst. coord.
        k(    1) = (   0.5000000   0.5000000   0.5000000), wk =   0.4000000
        k(    2) = (   0.0000000   0.5000000   0.5000000), wk =   0.4000000
        k(    3) = (   0.5000000   0.0000000   0.5000000), wk =   0.4000000
        k(    4) = (   0.0000000   0.5000000   0.0000000), wk =   0.4000000
        k(    5) = (  -0.0000000   0.0000000   0.5000000), wk =   0.4000000

     Dense  grid:    37485 G-vectors     FFT dimensions: (  36,  48,  64)

     Dynamical RAM for                 wfc:       0.43 MB

     Dynamical RAM for     wfc (w. buffer):       0.43 MB

     Dynamical RAM for           str. fact:       0.57 MB

     Dynamical RAM for           local pot:       0.00 MB

     Dynamical RAM for          nlocal pot:       0.57 MB

     Dynamical RAM for                qrad:       0.41 MB

     Dynamical RAM for          rho,v,vnew:       4.25 MB

     Dynamical RAM for           G-vectors:       2.43 MB

     Dynamical RAM for          h,s,v(r/c):       0.01 MB

     Dynamical RAM for          <psi|beta>:       0.00 MB

     Dynamical RAM for                 psi:       0.86 MB

     Dynamical RAM for                hpsi:       0.86 MB

     Dynamical RAM for      wfcinit/wfcrot:       0.86 MB

     Estimated static dynamical RAM per process >      14.02 MB

     Estimated max dynamical RAM per process >      15.75 MB

     The potential is recalculated from file :
     sweeps/MCL_-12/MCL_02.save/charge-density

     Starting wfcs are    4 randomized atomic wfcs +    2 random wfcs

     Band Structure Calculation
     Davidson diagonalization with overlap

     Computing kpt #:     1  of     5
     total cpu time spent up to now is        1.1 secs

     Computing kpt #:     2  of     5
     total cpu time spent up to now is        1.7 secs

     Computing kpt #:     3  of     5
     total cpu time spent up to now is        2.2 secs

     Computing kpt #:     4  of     5
     total cpu time spent up to now is        2.5 secs

     Computing kpt #:     5  of     5
     total cpu time spent up to now is        2.9 secs

     ethr =  2.50E-10,  avg # of iterations = 22.4

     total cpu time spent up to now is        2.9 secs

     End of band structure calculation

          k = 0.5000 0.3846-0.0841 (  4692 PWs)   bands (ev):

   -11.9677  -4.4567  -3.7880  -3.2284   4.3050   6.5677

          k = 0.0000 0.3846 0.4159 (  4676 PWs)   bands (ev):

   -12.3366  -4.2877  -4.1320  -2.4828   3.5442   5.7695

          k = 0.5000 0.0000-0.0841 (  4716 PWs)   bands (ev):

   -12.0285  -4.5852  -3.3601  -3.2658   4.6812   4.8847

          k = 0.0000 0.3846 0.0000 (  4656 PWs)   bands (ev):

   -12.4708  -4.3628  -3.4704  -2.4960   3.4288   4.0072

          k =-0.0000 0.0000 0.4159 (  4678 PWs)   bands (ev):

   -12.4081  -4.4382  -3.5963  -2.5066   3.8097   4.0401

     Writing all to output data dir sweeps/MCL_-12/MCL_02.save/ :
     XML data file, pseudopotentials, collected wavefunctions
 
     init_run     :      7.55s CPU      0.18s WALL (       1 calls)
     electrons    :    165.33s CPU      2.75s WALL (       1 calls)

     Called by init_run:
     wfcinit      :      0.06s CPU      0.00s WALL (       1 calls)
     wfcinit:atom :      0.27s CPU      0.00s WALL (       5 calls)
     wfcinit:wfcr :     12.37s CPU      0.21s WALL (       5 calls)
     potinit      :      4.47s CPU      0.08s WALL (       1 calls)
     hinit0       :      3.01s CPU      0.08s WALL (       1 calls)

     Called by electrons:
     c_bands      :    165.33s CPU      2.75s WALL (       1 calls)
     v_of_rho     :      3.95s CPU      0.07s WALL (       1 calls)
     v_h          :      0.27s CPU      0.00s WALL (       1 calls)
     v_xc         :      3.69s CPU      0.07s WALL (       1 calls)

     Called by c_bands:
     init_us_2    :      0.38s CPU      0.01s WALL (       5 calls)
     cegterg      :    151.40s CPU      2.51s WALL (       7 calls)

     Called by sum_band:

     Called by *egterg:
     cdiaghg      :      0.72s CPU      0.01s WALL (     117 calls)
     cegterg:over :      1.27s CPU      0.02s WALL (     112 calls)
     cegterg:upda :      8.40s CPU      0.14s WALL (     112 calls)
     cegterg:last :      1.23s CPU      0.02s WALL (      67 calls)
     h_psi        :    148.44s CPU      2.46s WALL (     124 calls)
     g_psi        :      1.70s CPU      0.03s WALL (     112 calls)

     Called by h_psi:
     h_psi:calbec :      1.02s CPU      0.02s WALL (     124 calls)
     vloc_psi     :    144.76s CPU      2.40s WALL (     124 calls)
     add_vuspsi   :      0.89s CPU      0.02s WALL (     124 calls)

     General routines
     calbec       :      0.93s CPU      0.02s WALL (     124 calls)
     fft          :      1.69s CPU      0.03s WALL (      10 calls)
     fftw         :     58.46s CPU      0.96s WALL (     882 calls)
     davcio       :      0.07s CPU      0.00s WALL (      10 calls)
 
     Parallel routines
 
     PWSCF        :   2m54.60s CPU      2.97s WALL

 
   This run was terminated on:  11:47:50  17Jun2025            

=------------------------------------------------------------------------------=
   JOB DONE.
=------------------------------------------------------------------------------=
