
     Program PWSCF v.7.3.1 starts on 17Jun2025 at 11:48: 9 

     This program is part of the open-source Quantum ESPRESSO suite
     for quantum simulation of materials; please cite
         "P. Giannozzi et al., J. Phys.:Condens. Matter 21 395502 (2009);
         "P. Giannozzi et al., J. Phys.:Condens. Matter 29 465901 (2017);
         "P. Giannozzi et al., J. Chem. Phys. 152 154105 (2020);
          URL http://www.quantum-espresso.org", 
     in publications or presentations arising from this work. More details at
     http://www.quantum-espresso.org/quote

     Parallel version (MPI & OpenMP), running on      96 processor cores
     Number of MPI processes:                 1
     Threads/MPI process:                    96

     MPI processes distributed on     1 nodes
     121896 MiB available memory on the printing compute node when the environment starts
 
     Waiting for input...
     Reading input from standard input
Warning: card &IONS ignored
Warning: card     ION_DYNAMICS = 'BFGS' ignored
Warning: card /&END ignored

     Current dimensions of program PWSCF are:
     Max number of different atomic species (ntypx) = 10
     Max number of k-points (npk) =  40000
     Max angular momentum in pseudopotentials (lmaxx) =  4

     Atomic positions and unit cell read from directory:
     sweeps/MCL_-12/MCL_03.save/
 
 
     Subspace diagonalization in iterative solution of the eigenvalue problem:
     a serial algorithm will be used

 
     G-vector sticks info
     --------------------
     sticks:   dense  smooth     PW     G-vecs:    dense   smooth      PW
     Sum        2921    2921    813               165175   165175   23833
 
     Using Slab Decomposition
 


     bravais-lattice index     =          -12
     lattice parameter (alat)  =       9.4248  a.u.
     unit-cell volume          =    1709.3107 (a.u.)^3
     number of atoms/cell      =            1
     number of atomic types    =            1
     number of electrons       =         4.00
     number of Kohn-Sham states=            6
     kinetic-energy cutoff     =      80.0000  Ry
     charge density cutoff     =     320.0000  Ry
     Exchange-correlation= PBE
                           (   1   4   3   4   0   0   0)

     celldm(1)=   9.424778  celldm(2)=   1.300000  celldm(3)=   1.700000
     celldm(4)=   0.000000  celldm(5)=   0.382683  celldm(6)=   0.000000

     crystal axes: (cart. coord. in units of alat)
               a(1) = (   1.000000   0.000000   0.000000 )  
               a(2) = (   0.000000   1.300000   0.000000 )  
               a(3) = (   0.650562   0.000000   1.570595 )  

     reciprocal axes: (cart. coord. in units 2 pi/alat)
               b(1) = (  1.000000  0.000000 -0.414214 )  
               b(2) = (  0.000000  0.769231  0.000000 )  
               b(3) = (  0.000000  0.000000  0.636701 )  


     PseudoPot. # 1 for C  read from file:
     ./C_ONCV_PBE_sr.upf
     MD5 check sum: b68b6074392897e22e8b22f1bd7aa93e
     Pseudo is Norm-conserving, Zval =  4.0
     Generated using ONCVPSP code by D. R. Hamann
     Using radial grid of 1248 points,  4 beta functions with: 
                l(1) =   0
                l(2) =   0
                l(3) =   1
                l(4) =   1

     atomic species   valence    mass     pseudopotential
     C                 4.00    10.81100     C ( 1.00)

      4 Sym. Ops., with inversion, found


                                    s                        frac. trans.

      isym =  1     identity                                     

 cryst.   s( 1) = (     1          0          0      )
                  (     0          1          0      )
                  (     0          0          1      )

 cart.    s( 1) = (  1.0000000  0.0000000  0.0000000 )
                  (  0.0000000  1.0000000  0.0000000 )
                  (  0.0000000  0.0000000  1.0000000 )


      isym =  2     180 deg rotation - cart. axis [0,1,0]        

 cryst.   s( 2) = (    -1          0          0      )
                  (     0          1          0      )
                  (     0          0         -1      )

 cart.    s( 2) = ( -1.0000000  0.0000000 -0.0000000 )
                  (  0.0000000  1.0000000  0.0000000 )
                  (  0.0000000  0.0000000 -1.0000000 )


      isym =  3     inversion                                    

 cryst.   s( 3) = (    -1          0          0      )
                  (     0         -1          0      )
                  (     0          0         -1      )

 cart.    s( 3) = ( -1.0000000  0.0000000 -0.0000000 )
                  (  0.0000000 -1.0000000  0.0000000 )
                  (  0.0000000  0.0000000 -1.0000000 )


      isym =  4     inv. 180 deg rotation - cart. axis [0,1,0]   

 cryst.   s( 4) = (     1          0          0      )
                  (     0         -1          0      )
                  (     0          0          1      )

 cart.    s( 4) = (  1.0000000  0.0000000  0.0000000 )
                  (  0.0000000 -1.0000000  0.0000000 )
                  (  0.0000000  0.0000000  1.0000000 )


     point group C_2h (2/m) 
     there are  4 classes
     the character table:

       E     C2    i     s_h  
A_g    1.00  1.00  1.00  1.00
B_g    1.00 -1.00  1.00 -1.00
A_u    1.00  1.00 -1.00 -1.00
B_u    1.00 -1.00 -1.00  1.00

     the symmetry operations in each class and the name of the first element:

     E        1
          identity                                               
     C2       2
          180 deg rotation - cart. axis [0,1,0]                  
     i        3
          inversion                                              
     s_h      4
          inv. 180 deg rotation - cart. axis [0,1,0]             

   Cartesian axes

     site n.     atom                  positions (alat units)
         1        C      tau(   1) = (   0.0000000   0.0000000   0.0000000  )

   Crystallographic axes

     site n.     atom                  positions (cryst. coord.)
         1        C      tau(   1) = (  0.0000000  0.0000000  0.0000000  )

     number of k points=     5  Gaussian smearing, width (Ry)=  0.0050
                       cart. coord. in units 2pi/alat
        k(    1) = (   0.5000000   0.3846154  -0.2071068), wk =   0.4000000
        k(    2) = (   0.0000000   0.3846154   0.3183506), wk =   0.4000000
        k(    3) = (   0.5000000   0.0000000  -0.2071068), wk =   0.4000000
        k(    4) = (   0.0000000   0.3846154   0.0000000), wk =   0.4000000
        k(    5) = (   0.0000000   0.0000000   0.3183506), wk =   0.4000000

                       cryst. coord.
        k(    1) = (   0.5000000   0.5000000   0.0000000), wk =   0.4000000
        k(    2) = (   0.0000000   0.5000000   0.5000000), wk =   0.4000000
        k(    3) = (   0.5000000   0.0000000   0.0000000), wk =   0.4000000
        k(    4) = (   0.0000000   0.5000000   0.0000000), wk =   0.4000000
        k(    5) = (   0.0000000   0.0000000   0.5000000), wk =   0.4000000

     Dense  grid:   165175 G-vectors     FFT dimensions: (  54,  72,  96)

     Dynamical RAM for                 wfc:       1.89 MB

     Dynamical RAM for     wfc (w. buffer):       1.89 MB

     Dynamical RAM for           str. fact:       2.52 MB

     Dynamical RAM for           local pot:       0.00 MB

     Dynamical RAM for          nlocal pot:       2.52 MB

     Dynamical RAM for                qrad:       0.41 MB

     Dynamical RAM for          rho,v,vnew:      16.10 MB

     Dynamical RAM for           G-vectors:      10.71 MB

     Dynamical RAM for          h,s,v(r/c):       0.01 MB

     Dynamical RAM for          <psi|beta>:       0.00 MB

     Dynamical RAM for                 psi:       3.78 MB

     Dynamical RAM for                hpsi:       3.78 MB

     Dynamical RAM for      wfcinit/wfcrot:       3.78 MB

     Estimated static dynamical RAM per process >      53.44 MB

     Estimated max dynamical RAM per process >      61.01 MB

     The potential is recalculated from file :
     sweeps/MCL_-12/MCL_03.save/charge-density

     Starting wfcs are    4 randomized atomic wfcs +    2 random wfcs

     Band Structure Calculation
     Davidson diagonalization with overlap

     Computing kpt #:     1  of     5
     c_bands:  1 eigenvalues not converged
     total cpu time spent up to now is        5.1 secs

     Computing kpt #:     2  of     5
     total cpu time spent up to now is        7.6 secs

     Computing kpt #:     3  of     5
     total cpu time spent up to now is        9.3 secs

     Computing kpt #:     4  of     5
     total cpu time spent up to now is       10.4 secs

     Computing kpt #:     5  of     5
     total cpu time spent up to now is       11.4 secs

     ethr =  2.50E-10,  avg # of iterations = 58.8

     total cpu time spent up to now is       11.4 secs

     End of band structure calculation

          k = 0.5000 0.3846-0.2071 ( 20588 PWs)   bands (ev):

   -13.3874  -5.0024  -4.9353  -4.9201   1.8357   2.1453

          k = 0.0000 0.3846 0.3184 ( 20668 PWs)   bands (ev):

   -13.4068  -4.9777  -4.9594  -4.7599   0.9321   1.0221

          k = 0.5000 0.0000-0.2071 ( 20676 PWs)   bands (ev):

   -13.3883  -5.0092  -4.9237  -4.9043   1.2644   1.3044

          k = 0.0000 0.3846 0.0000 ( 20682 PWs)   bands (ev):

   -13.4069  -4.9787  -4.9528  -4.7598   0.3558   0.4847

          k = 0.0000 0.0000 0.3184 ( 20632 PWs)   bands (ev):

   -13.4079  -4.9650  -4.9373  -4.7617  -0.0256   0.2869

     Writing all to output data dir sweeps/MCL_-12/MCL_03.save/ :
     XML data file, pseudopotentials, collected wavefunctions
 
     init_run     :     16.92s CPU      0.39s WALL (       1 calls)
     electrons    :    924.60s CPU     11.02s WALL (       1 calls)

     Called by init_run:
     wfcinit      :      0.12s CPU      0.00s WALL (       1 calls)
     wfcinit:atom :      0.51s CPU      0.01s WALL (       5 calls)
     wfcinit:wfcr :     28.14s CPU      0.36s WALL (       5 calls)
     potinit      :     10.44s CPU      0.19s WALL (       1 calls)
     hinit0       :      6.32s CPU      0.14s WALL (       1 calls)

     Called by electrons:
     c_bands      :    924.60s CPU     11.02s WALL (       1 calls)
     v_of_rho     :      8.63s CPU      0.16s WALL (       1 calls)
     v_h          :      2.15s CPU      0.04s WALL (       1 calls)
     v_xc         :      6.48s CPU      0.12s WALL (       1 calls)

     Called by c_bands:
     init_us_2    :      1.53s CPU      0.02s WALL (       5 calls)
     cegterg      :    892.92s CPU     10.61s WALL (      18 calls)

     Called by sum_band:

     Called by *egterg:
     cdiaghg      :      2.55s CPU      0.03s WALL (     299 calls)
     cegterg:over :     20.72s CPU      0.24s WALL (     294 calls)
     cegterg:upda :     27.17s CPU      0.34s WALL (     294 calls)
     cegterg:last :     15.81s CPU      0.18s WALL (     132 calls)
     h_psi        :    840.73s CPU     10.00s WALL (     317 calls)
     g_psi        :      3.42s CPU      0.05s WALL (     294 calls)

     Called by h_psi:
     h_psi:calbec :     11.98s CPU      0.14s WALL (     317 calls)
     vloc_psi     :    814.05s CPU      9.70s WALL (     317 calls)
     add_vuspsi   :      9.09s CPU      0.11s WALL (     317 calls)

     General routines
     calbec       :     11.29s CPU      0.13s WALL (     317 calls)
     fft          :      3.21s CPU      0.06s WALL (      10 calls)
     fftw         :    661.38s CPU      7.62s WALL (    1696 calls)
     davcio       :      0.43s CPU      0.00s WALL (      10 calls)
 
     Parallel routines
 
     PWSCF        :  15m46.33s CPU     11.48s WALL

 
   This run was terminated on:  11:48:21  17Jun2025            

=------------------------------------------------------------------------------=
   JOB DONE.
=------------------------------------------------------------------------------=
