
     Program PWSCF v.7.3.1 starts on 17Jun2025 at 11:47:42 

     This program is part of the open-source Quantum ESPRESSO suite
     for quantum simulation of materials; please cite
         "P. Giannozzi et al., J. Phys.:Condens. Matter 21 395502 (2009);
         "P. Giannozzi et al., J. Phys.:Condens. Matter 29 465901 (2017);
         "P. Giannozzi et al., J. Chem. Phys. 152 154105 (2020);
          URL http://www.quantum-espresso.org", 
     in publications or presentations arising from this work. More details at
     http://www.quantum-espresso.org/quote

     Parallel version (MPI & OpenMP), running on      96 processor cores
     Number of MPI processes:                 1
     Threads/MPI process:                    96

     MPI processes distributed on     1 nodes
     121975 MiB available memory on the printing compute node when the environment starts
 
     Waiting for input...
     Reading input from standard input

     Current dimensions of program PWSCF are:
     Max number of different atomic species (ntypx) = 10
     Max number of k-points (npk) =  40000
     Max angular momentum in pseudopotentials (lmaxx) =  4
 
     Subspace diagonalization in iterative solution of the eigenvalue problem:
     a serial algorithm will be used

 
     G-vector sticks info
     --------------------
     sticks:   dense  smooth     PW     G-vecs:    dense   smooth      PW
     Sum        1305    1305    383                37485    37485    6047
 
     Using Slab Decomposition
 


     bravais-lattice index     =          -12
     lattice parameter (alat)  =       6.2832  a.u.
     unit-cell volume          =     387.6296 (a.u.)^3
     number of atoms/cell      =            1
     number of atomic types    =            1
     number of electrons       =         4.00
     number of Kohn-Sham states=            6
     kinetic-energy cutoff     =      80.0000  Ry
     charge density cutoff     =     320.0000  Ry
     scf convergence threshold =      1.0E-08
     mixing beta               =       0.7000
     number of iterations used =            8  plain     mixing
     Exchange-correlation= PBE
                           (   1   4   3   4   0   0   0)

     celldm(1)=   6.283185  celldm(2)=   1.300000  celldm(3)=   1.700000
     celldm(4)=   0.000000  celldm(5)=   0.707107  celldm(6)=   0.000000

     crystal axes: (cart. coord. in units of alat)
               a(1) = (   1.000000   0.000000   0.000000 )  
               a(2) = (   0.000000   1.300000   0.000000 )  
               a(3) = (   1.202082   0.000000   1.202082 )  

     reciprocal axes: (cart. coord. in units 2 pi/alat)
               b(1) = (  1.000000  0.000000 -1.000000 )  
               b(2) = (  0.000000  0.769231  0.000000 )  
               b(3) = (  0.000000  0.000000  0.831890 )  


     PseudoPot. # 1 for C  read from file:
     ./C_ONCV_PBE_sr.upf
     MD5 check sum: b68b6074392897e22e8b22f1bd7aa93e
     Pseudo is Norm-conserving, Zval =  4.0
     Generated using ONCVPSP code by D. R. Hamann
     Using radial grid of 1248 points,  4 beta functions with: 
                l(1) =   0
                l(2) =   0
                l(3) =   1
                l(4) =   1

     atomic species   valence    mass     pseudopotential
     C                 4.00    10.81100     C ( 1.00)

      4 Sym. Ops., with inversion, found


                                    s                        frac. trans.

      isym =  1     identity                                     

 cryst.   s( 1) = (     1          0          0      )
                  (     0          1          0      )
                  (     0          0          1      )

 cart.    s( 1) = (  1.0000000  0.0000000  0.0000000 )
                  (  0.0000000  1.0000000  0.0000000 )
                  (  0.0000000  0.0000000  1.0000000 )


      isym =  2     180 deg rotation - cart. axis [0,1,0]        

 cryst.   s( 2) = (    -1          0          0      )
                  (     0          1          0      )
                  (     0          0         -1      )

 cart.    s( 2) = ( -1.0000000  0.0000000  0.0000000 )
                  (  0.0000000  1.0000000  0.0000000 )
                  (  0.0000000  0.0000000 -1.0000000 )


      isym =  3     inversion                                    

 cryst.   s( 3) = (    -1          0          0      )
                  (     0         -1          0      )
                  (     0          0         -1      )

 cart.    s( 3) = ( -1.0000000  0.0000000  0.0000000 )
                  (  0.0000000 -1.0000000  0.0000000 )
                  (  0.0000000  0.0000000 -1.0000000 )


      isym =  4     inv. 180 deg rotation - cart. axis [0,1,0]   

 cryst.   s( 4) = (     1          0          0      )
                  (     0         -1          0      )
                  (     0          0          1      )

 cart.    s( 4) = (  1.0000000  0.0000000  0.0000000 )
                  (  0.0000000 -1.0000000  0.0000000 )
                  (  0.0000000  0.0000000  1.0000000 )


     point group C_2h (2/m) 
     there are  4 classes
     the character table:

       E     C2    i     s_h  
A_g    1.00  1.00  1.00  1.00
B_g    1.00 -1.00  1.00 -1.00
A_u    1.00  1.00 -1.00 -1.00
B_u    1.00 -1.00 -1.00  1.00

     the symmetry operations in each class and the name of the first element:

     E        1
          identity                                               
     C2       2
          180 deg rotation - cart. axis [0,1,0]                  
     i        3
          inversion                                              
     s_h      4
          inv. 180 deg rotation - cart. axis [0,1,0]             

   Cartesian axes

     site n.     atom                  positions (alat units)
         1        C      tau(   1) = (   0.0000000   0.0000000   0.0000000  )

   Crystallographic axes

     site n.     atom                  positions (cryst. coord.)
         1        C      tau(   1) = (  0.0000000  0.0000000  0.0000000  )

     number of k points=     8  Gaussian smearing, width (Ry)=  0.0050
                       cart. coord. in units 2pi/alat
        k(    1) = (   0.0000000   0.0000000   0.0000000), wk =   0.2500000
        k(    2) = (   0.0000000   0.0000000  -0.4159452), wk =   0.2500000
        k(    3) = (   0.0000000  -0.3846154   0.0000000), wk =   0.2500000
        k(    4) = (   0.0000000  -0.3846154  -0.4159452), wk =   0.2500000
        k(    5) = (  -0.5000000   0.0000000   0.5000000), wk =   0.2500000
        k(    6) = (  -0.5000000   0.0000000   0.0840548), wk =   0.2500000
        k(    7) = (  -0.5000000  -0.3846154   0.5000000), wk =   0.2500000
        k(    8) = (  -0.5000000  -0.3846154   0.0840548), wk =   0.2500000

                       cryst. coord.
        k(    1) = (   0.0000000   0.0000000   0.0000000), wk =   0.2500000
        k(    2) = (   0.0000000   0.0000000  -0.5000000), wk =   0.2500000
        k(    3) = (   0.0000000  -0.5000000   0.0000000), wk =   0.2500000
        k(    4) = (   0.0000000  -0.5000000  -0.5000000), wk =   0.2500000
        k(    5) = (  -0.5000000   0.0000000   0.0000000), wk =   0.2500000
        k(    6) = (  -0.5000000   0.0000000  -0.5000000), wk =   0.2500000
        k(    7) = (  -0.5000000  -0.5000000   0.0000000), wk =   0.2500000
        k(    8) = (  -0.5000000  -0.5000000  -0.5000000), wk =   0.2500000

     Dense  grid:    37485 G-vectors     FFT dimensions: (  36,  48,  64)

     Dynamical RAM for                 wfc:       0.43 MB

     Dynamical RAM for     wfc (w. buffer):       3.86 MB

     Dynamical RAM for           str. fact:       0.57 MB

     Dynamical RAM for           local pot:       0.00 MB

     Dynamical RAM for          nlocal pot:       0.57 MB

     Dynamical RAM for                qrad:       0.41 MB

     Dynamical RAM for          rho,v,vnew:       4.25 MB

     Dynamical RAM for               rhoin:       1.42 MB

     Dynamical RAM for            rho*nmix:       9.15 MB

     Dynamical RAM for           G-vectors:       2.43 MB

     Dynamical RAM for          h,s,v(r/c):       0.01 MB

     Dynamical RAM for          <psi|beta>:       0.00 MB

     Dynamical RAM for                 psi:       0.86 MB

     Dynamical RAM for                hpsi:       0.86 MB

     Dynamical RAM for      wfcinit/wfcrot:       0.86 MB

     Estimated static dynamical RAM per process >      18.87 MB

     Estimated max dynamical RAM per process >      29.74 MB

     Initial potential from superposition of free atoms

     starting charge       4.0000, renormalised to       4.0000
     Starting wfcs are    4 randomized atomic wfcs +    2 random wfcs

     total cpu time spent up to now is        0.3 secs

     Self-consistent Calculation

     iteration #  1     ecut=    80.00 Ry     beta= 0.70
     Davidson diagonalization with overlap

---- Real-time Memory Report at c_bands before calling an iterative solver
           203 MiB given to the printing process from OS
             0 MiB allocation reported by mallinfo(arena+hblkhd)
        121877 MiB available memory on the node where the printing process lives
------------------
     ethr =  1.00E-02,  avg # of iterations =  7.5

     Threshold (ethr) on eigenvalues was too large:
     Diagonalizing with lowered threshold

     Davidson diagonalization with overlap

---- Real-time Memory Report at c_bands before calling an iterative solver
           203 MiB given to the printing process from OS
             0 MiB allocation reported by mallinfo(arena+hblkhd)
        121881 MiB available memory on the node where the printing process lives
------------------
     ethr =  5.41E-04,  avg # of iterations =  1.5

     total cpu time spent up to now is        1.5 secs

     total energy              =     -10.82716073 Ry
     estimated scf accuracy    <       0.02158692 Ry

     iteration #  2     ecut=    80.00 Ry     beta= 0.70
     Davidson diagonalization with overlap

---- Real-time Memory Report at c_bands before calling an iterative solver
           223 MiB given to the printing process from OS
             0 MiB allocation reported by mallinfo(arena+hblkhd)
        121852 MiB available memory on the node where the printing process lives
------------------
     ethr =  5.40E-04,  avg # of iterations =  1.4

     total cpu time spent up to now is        1.9 secs

     total energy              =     -10.82954418 Ry
     estimated scf accuracy    <       0.00125912 Ry

     iteration #  3     ecut=    80.00 Ry     beta= 0.70
     Davidson diagonalization with overlap

---- Real-time Memory Report at c_bands before calling an iterative solver
           227 MiB given to the printing process from OS
             0 MiB allocation reported by mallinfo(arena+hblkhd)
        121854 MiB available memory on the node where the printing process lives
------------------
     ethr =  3.15E-05,  avg # of iterations =  3.2

     total cpu time spent up to now is        2.4 secs

     total energy              =     -10.82971965 Ry
     estimated scf accuracy    <       0.00006168 Ry

     iteration #  4     ecut=    80.00 Ry     beta= 0.70
     Davidson diagonalization with overlap

---- Real-time Memory Report at c_bands before calling an iterative solver
           227 MiB given to the printing process from OS
             0 MiB allocation reported by mallinfo(arena+hblkhd)
        121854 MiB available memory on the node where the printing process lives
------------------
     ethr =  1.54E-06,  avg # of iterations =  2.8

     total cpu time spent up to now is        2.8 secs

     total energy              =     -10.82972628 Ry
     estimated scf accuracy    <       0.00000125 Ry

     iteration #  5     ecut=    80.00 Ry     beta= 0.70
     Davidson diagonalization with overlap

---- Real-time Memory Report at c_bands before calling an iterative solver
           229 MiB given to the printing process from OS
             0 MiB allocation reported by mallinfo(arena+hblkhd)
        121851 MiB available memory on the node where the printing process lives
------------------
     ethr =  3.12E-08,  avg # of iterations =  1.9

     total cpu time spent up to now is        3.2 secs

     total energy              =     -10.82972672 Ry
     estimated scf accuracy    <       0.00000012 Ry

     iteration #  6     ecut=    80.00 Ry     beta= 0.70
     Davidson diagonalization with overlap

---- Real-time Memory Report at c_bands before calling an iterative solver
           233 MiB given to the printing process from OS
             0 MiB allocation reported by mallinfo(arena+hblkhd)
        121845 MiB available memory on the node where the printing process lives
------------------
     ethr =  3.09E-09,  avg # of iterations =  1.8

     total cpu time spent up to now is        3.6 secs

     End of self-consistent calculation

          k = 0.0000 0.0000 0.0000 (  4679 PWs)   bands (ev):

   -12.5531  -3.6989  -3.5190  -2.5202   1.4183   6.3436

     occupation numbers 
     1.0000   0.0000   0.0000   0.0000   0.0000   0.0000

          k = 0.0000 0.0000-0.4159 (  4678 PWs)   bands (ev):

   -12.4076  -4.4378  -3.5959  -2.5062   3.8099   4.0403

     occupation numbers 
     1.0000   1.0000   0.0000   0.0000   0.0000   0.0000

          k = 0.0000-0.3846 0.0000 (  4656 PWs)   bands (ev):

   -12.4704  -4.3625  -3.4700  -2.4955   3.4290   4.0073

     occupation numbers 
     1.0000   1.0000   0.0000   0.0000   0.0000   0.0000

          k = 0.0000-0.3846-0.4159 (  4676 PWs)   bands (ev):

   -12.3362  -4.2873  -4.1316  -2.4823   3.5442   5.7697

     occupation numbers 
     1.0000   1.0000   0.9996   0.0000   0.0000   0.0000

          k =-0.5000 0.0000 0.5000 (  4704 PWs)   bands (ev):

   -11.9329  -4.4271  -3.8042  -3.2993   4.4334   6.2976

     occupation numbers 
     1.0000   1.0000   0.0003   0.0000   0.0000   0.0000

          k =-0.5000 0.0000 0.0841 (  4716 PWs)   bands (ev):

   -12.0281  -4.5848  -3.3596  -3.2654   4.6813   4.8849

     occupation numbers 
     1.0000   1.0000   0.0000   0.0000   0.0000   0.0000

          k =-0.5000-0.3846 0.5000 (  4684 PWs)   bands (ev):

   -11.8774  -4.3217  -3.7284  -3.6772   5.3882   5.7385

     occupation numbers 
     1.0000   1.0000   0.0000   0.0000   0.0000   0.0000

          k =-0.5000-0.3846 0.0841 (  4692 PWs)   bands (ev):

   -11.9673  -4.4563  -3.7876  -3.2280   4.3051   6.5678

     occupation numbers 
     1.0000   1.0000   0.0001   0.0000   0.0000   0.0000

     the Fermi energy is    -3.9694 ev

!    total energy              =     -10.82972675 Ry
     estimated scf accuracy    <          1.7E-09 Ry
     smearing contrib. (-TS)   =      -0.00000245 Ry
     internal energy E=F+TS    =     -10.82972430 Ry

     The total energy is F=E-TS. E is the sum of the following terms:
     one-electron contribution =      -5.03565926 Ry
     hartree contribution      =       3.08563408 Ry
     xc contribution           =      -2.76570736 Ry
     ewald contribution        =      -6.11399176 Ry

     convergence has been achieved in   6 iterations

     Writing all to output data dir sweeps/MCL_-12/MCL_02.save/ :
     XML data file, charge density, pseudopotentials, collected wavefunctions
 
     init_run     :     16.82s CPU      0.29s WALL (       1 calls)
     electrons    :    266.43s CPU      3.34s WALL (       1 calls)

     Called by init_run:
     wfcinit      :     10.65s CPU      0.16s WALL (       1 calls)
     wfcinit:atom :      0.20s CPU      0.00s WALL (       8 calls)
     wfcinit:wfcr :      9.80s CPU      0.14s WALL (       8 calls)
     potinit      :      3.16s CPU      0.05s WALL (       1 calls)
     hinit0       :      2.99s CPU      0.07s WALL (       1 calls)

     Called by electrons:
     c_bands      :    207.20s CPU      2.62s WALL (       7 calls)
     sum_band     :     47.73s CPU      0.59s WALL (       7 calls)
     v_of_rho     :      9.16s CPU      0.11s WALL (       7 calls)
     v_h          :      0.90s CPU      0.01s WALL (       7 calls)
     v_xc         :      8.25s CPU      0.10s WALL (       7 calls)
     mix_rho      :      2.52s CPU      0.03s WALL (       7 calls)

     Called by c_bands:
     init_us_2    :      5.49s CPU      0.07s WALL (     120 calls)
     cegterg      :    202.66s CPU      2.56s WALL (      56 calls)

     Called by sum_band:
     sum_band:wei :      0.09s CPU      0.00s WALL (       7 calls)
     sum_band:loo :     42.87s CPU      0.53s WALL (       7 calls)
     sum_band:buf :      0.38s CPU      0.00s WALL (      56 calls)
     sum_band:ini :      2.57s CPU      0.03s WALL (      56 calls)

     Called by *egterg:
     cdiaghg      :      1.32s CPU      0.02s WALL (     208 calls)
     cegterg:over :      2.21s CPU      0.03s WALL (     160 calls)
     cegterg:upda :      3.36s CPU      0.04s WALL (     160 calls)
     cegterg:last :      1.84s CPU      0.02s WALL (     104 calls)
     h_psi        :    197.53s CPU      2.51s WALL (     224 calls)
     g_psi        :      1.59s CPU      0.02s WALL (     160 calls)

     Called by h_psi:
     h_psi:calbec :      2.18s CPU      0.03s WALL (     224 calls)
     vloc_psi     :    190.25s CPU      2.42s WALL (     224 calls)
     add_vuspsi   :      1.68s CPU      0.02s WALL (     224 calls)

     General routines
     calbec       :      1.91s CPU      0.02s WALL (     224 calls)
     fft          :      4.93s CPU      0.06s WALL (      70 calls)
     ffts         :      0.43s CPU      0.01s WALL (       7 calls)
     fftw         :    181.12s CPU      2.27s WALL (    2096 calls)
 
     Parallel routines
 
     PWSCF        :   4m45.99s CPU      3.68s WALL

 
   This run was terminated on:  11:47:46  17Jun2025            

=------------------------------------------------------------------------------=
   JOB DONE.
=------------------------------------------------------------------------------=
