
     Program PWSCF v.7.3.1 starts on 17Jun2025 at 11:47:38 

     This program is part of the open-source Quantum ESPRESSO suite
     for quantum simulation of materials; please cite
         "P. Giannozzi et al., J. Phys.:Condens. Matter 21 395502 (2009);
         "P. Giannozzi et al., J. Phys.:Condens. Matter 29 465901 (2017);
         "P. Giannozzi et al., J. Chem. Phys. 152 154105 (2020);
          URL http://www.quantum-espresso.org", 
     in publications or presentations arising from this work. More details at
     http://www.quantum-espresso.org/quote

     Parallel version (MPI & OpenMP), running on      96 processor cores
     Number of MPI processes:                 1
     Threads/MPI process:                    96

     MPI processes distributed on     1 nodes
     121988 MiB available memory on the printing compute node when the environment starts
 
     Waiting for input...
     Reading input from standard input

     Current dimensions of program PWSCF are:
     Max number of different atomic species (ntypx) = 10
     Max number of k-points (npk) =  40000
     Max angular momentum in pseudopotentials (lmaxx) =  4
 
     Subspace diagonalization in iterative solution of the eigenvalue problem:
     a serial algorithm will be used

 
     G-vector sticks info
     --------------------
     sticks:   dense  smooth     PW     G-vecs:    dense   smooth      PW
     Sum         323     323    137                 2521     2521     699
 
     Using Slab Decomposition
 


     bravais-lattice index     =          -12
     lattice parameter (alat)  =       3.1416  a.u.
     unit-cell volume          =      26.2230 (a.u.)^3
     number of atoms/cell      =            1
     number of atomic types    =            1
     number of electrons       =         4.00
     number of Kohn-Sham states=            6
     kinetic-energy cutoff     =      80.0000  Ry
     charge density cutoff     =     320.0000  Ry
     scf convergence threshold =      1.0E-08
     mixing beta               =       0.7000
     number of iterations used =            8  plain     mixing
     Exchange-correlation= PBE
                           (   1   4   3   4   0   0   0)

     celldm(1)=   3.141593  celldm(2)=   1.300000  celldm(3)=   1.700000
     celldm(4)=   0.000000  celldm(5)=   0.923880  celldm(6)=   0.000000

     crystal axes: (cart. coord. in units of alat)
               a(1) = (   1.000000   0.000000   0.000000 )  
               a(2) = (   0.000000   1.300000   0.000000 )  
               a(3) = (   1.570595   0.000000   0.650562 )  

     reciprocal axes: (cart. coord. in units 2 pi/alat)
               b(1) = (  1.000000  0.000000 -2.414214 )  
               b(2) = (  0.000000  0.769231  0.000000 )  
               b(3) = (  0.000000  0.000000  1.537133 )  


     PseudoPot. # 1 for C  read from file:
     ./C_ONCV_PBE_sr.upf
     MD5 check sum: b68b6074392897e22e8b22f1bd7aa93e
     Pseudo is Norm-conserving, Zval =  4.0
     Generated using ONCVPSP code by D. R. Hamann
     Using radial grid of 1248 points,  4 beta functions with: 
                l(1) =   0
                l(2) =   0
                l(3) =   1
                l(4) =   1

     atomic species   valence    mass     pseudopotential
     C                 4.00    10.81100     C ( 1.00)

      4 Sym. Ops., with inversion, found


                                    s                        frac. trans.

      isym =  1     identity                                     

 cryst.   s( 1) = (     1          0          0      )
                  (     0          1          0      )
                  (     0          0          1      )

 cart.    s( 1) = (  1.0000000  0.0000000  0.0000000 )
                  (  0.0000000  1.0000000  0.0000000 )
                  (  0.0000000  0.0000000  1.0000000 )


      isym =  2     180 deg rotation - cart. axis [0,1,0]        

 cryst.   s( 2) = (    -1          0          0      )
                  (     0          1          0      )
                  (     0          0         -1      )

 cart.    s( 2) = ( -1.0000000  0.0000000  0.0000000 )
                  (  0.0000000  1.0000000  0.0000000 )
                  (  0.0000000  0.0000000 -1.0000000 )


      isym =  3     inversion                                    

 cryst.   s( 3) = (    -1          0          0      )
                  (     0         -1          0      )
                  (     0          0         -1      )

 cart.    s( 3) = ( -1.0000000  0.0000000  0.0000000 )
                  (  0.0000000 -1.0000000  0.0000000 )
                  (  0.0000000  0.0000000 -1.0000000 )


      isym =  4     inv. 180 deg rotation - cart. axis [0,1,0]   

 cryst.   s( 4) = (     1          0          0      )
                  (     0         -1          0      )
                  (     0          0          1      )

 cart.    s( 4) = (  1.0000000  0.0000000  0.0000000 )
                  (  0.0000000 -1.0000000  0.0000000 )
                  (  0.0000000  0.0000000  1.0000000 )


     point group C_2h (2/m) 
     there are  4 classes
     the character table:

       E     C2    i     s_h  
A_g    1.00  1.00  1.00  1.00
B_g    1.00 -1.00  1.00 -1.00
A_u    1.00  1.00 -1.00 -1.00
B_u    1.00 -1.00 -1.00  1.00

     the symmetry operations in each class and the name of the first element:

     E        1
          identity                                               
     C2       2
          180 deg rotation - cart. axis [0,1,0]                  
     i        3
          inversion                                              
     s_h      4
          inv. 180 deg rotation - cart. axis [0,1,0]             

   Cartesian axes

     site n.     atom                  positions (alat units)
         1        C      tau(   1) = (   0.0000000   0.0000000   0.0000000  )

   Crystallographic axes

     site n.     atom                  positions (cryst. coord.)
         1        C      tau(   1) = (  0.0000000  0.0000000  0.0000000  )

     number of k points=     8  Gaussian smearing, width (Ry)=  0.0050
                       cart. coord. in units 2pi/alat
        k(    1) = (   0.0000000   0.0000000   0.0000000), wk =   0.2500000
        k(    2) = (   0.0000000   0.0000000  -0.7685664), wk =   0.2500000
        k(    3) = (   0.0000000  -0.3846154   0.0000000), wk =   0.2500000
        k(    4) = (   0.0000000  -0.3846154  -0.7685664), wk =   0.2500000
        k(    5) = (  -0.5000000   0.0000000   1.2071068), wk =   0.2500000
        k(    6) = (  -0.5000000   0.0000000   0.4385403), wk =   0.2500000
        k(    7) = (  -0.5000000  -0.3846154   1.2071068), wk =   0.2500000
        k(    8) = (  -0.5000000  -0.3846154   0.4385403), wk =   0.2500000

                       cryst. coord.
        k(    1) = (   0.0000000   0.0000000   0.0000000), wk =   0.2500000
        k(    2) = (   0.0000000   0.0000000  -0.5000000), wk =   0.2500000
        k(    3) = (   0.0000000  -0.5000000   0.0000000), wk =   0.2500000
        k(    4) = (   0.0000000  -0.5000000  -0.5000000), wk =   0.2500000
        k(    5) = (  -0.5000000   0.0000000  -0.0000000), wk =   0.2500000
        k(    6) = (  -0.5000000   0.0000000  -0.5000000), wk =   0.2500000
        k(    7) = (  -0.5000000  -0.5000000  -0.0000000), wk =   0.2500000
        k(    8) = (  -0.5000000  -0.5000000  -0.5000000), wk =   0.2500000

     Dense  grid:     2521 G-vectors     FFT dimensions: (  18,  24,  32)

     Dynamical RAM for                 wfc:       0.03 MB

     Dynamical RAM for     wfc (w. buffer):       0.26 MB

     Dynamical RAM for           str. fact:       0.04 MB

     Dynamical RAM for           local pot:       0.00 MB

     Dynamical RAM for          nlocal pot:       0.04 MB

     Dynamical RAM for                qrad:       0.41 MB

     Dynamical RAM for          rho,v,vnew:       0.43 MB

     Dynamical RAM for               rhoin:       0.14 MB

     Dynamical RAM for            rho*nmix:       0.62 MB

     Dynamical RAM for           G-vectors:       0.16 MB

     Dynamical RAM for          h,s,v(r/c):       0.01 MB

     Dynamical RAM for          <psi|beta>:       0.00 MB

     Dynamical RAM for                 psi:       0.06 MB

     Dynamical RAM for                hpsi:       0.06 MB

     Dynamical RAM for      wfcinit/wfcrot:       0.06 MB

     Estimated static dynamical RAM per process >       2.09 MB

     Estimated max dynamical RAM per process >       2.83 MB

     Initial potential from superposition of free atoms

     starting charge       4.0000, renormalised to       4.0000
     Starting wfcs are    4 randomized atomic wfcs +    2 random wfcs

     total cpu time spent up to now is        0.3 secs

     Self-consistent Calculation

     iteration #  1     ecut=    80.00 Ry     beta= 0.70
     Davidson diagonalization with overlap

---- Real-time Memory Report at c_bands before calling an iterative solver
           177 MiB given to the printing process from OS
             0 MiB allocation reported by mallinfo(arena+hblkhd)
        121916 MiB available memory on the node where the printing process lives
------------------
     ethr =  1.00E-02,  avg # of iterations =  6.2

     total cpu time spent up to now is        0.7 secs

     total energy              =     -10.93072356 Ry
     estimated scf accuracy    <       0.11619325 Ry

     iteration #  2     ecut=    80.00 Ry     beta= 0.70
     Davidson diagonalization with overlap

---- Real-time Memory Report at c_bands before calling an iterative solver
           178 MiB given to the printing process from OS
             0 MiB allocation reported by mallinfo(arena+hblkhd)
        121916 MiB available memory on the node where the printing process lives
------------------
     ethr =  2.90E-03,  avg # of iterations =  1.4

     total cpu time spent up to now is        0.9 secs

     total energy              =     -10.94217006 Ry
     estimated scf accuracy    <       0.00200791 Ry

     iteration #  3     ecut=    80.00 Ry     beta= 0.70
     Davidson diagonalization with overlap

---- Real-time Memory Report at c_bands before calling an iterative solver
           178 MiB given to the printing process from OS
             0 MiB allocation reported by mallinfo(arena+hblkhd)
        121915 MiB available memory on the node where the printing process lives
------------------
     ethr =  5.02E-05,  avg # of iterations =  2.4

     total cpu time spent up to now is        1.2 secs

     total energy              =     -10.94245002 Ry
     estimated scf accuracy    <       0.00008618 Ry

     iteration #  4     ecut=    80.00 Ry     beta= 0.70
     Davidson diagonalization with overlap

---- Real-time Memory Report at c_bands before calling an iterative solver
           178 MiB given to the printing process from OS
             0 MiB allocation reported by mallinfo(arena+hblkhd)
        121912 MiB available memory on the node where the printing process lives
------------------
     ethr =  2.15E-06,  avg # of iterations =  2.0

     total cpu time spent up to now is        1.4 secs

     total energy              =     -10.94245831 Ry
     estimated scf accuracy    <       0.00000044 Ry

     iteration #  5     ecut=    80.00 Ry     beta= 0.70
     Davidson diagonalization with overlap

---- Real-time Memory Report at c_bands before calling an iterative solver
           178 MiB given to the printing process from OS
             0 MiB allocation reported by mallinfo(arena+hblkhd)
        121912 MiB available memory on the node where the printing process lives
------------------
     ethr =  1.09E-08,  avg # of iterations =  2.0

     total cpu time spent up to now is        1.6 secs

     total energy              =     -10.94245851 Ry
     estimated scf accuracy    <       0.00000003 Ry

     iteration #  6     ecut=    80.00 Ry     beta= 0.70
     Davidson diagonalization with overlap

---- Real-time Memory Report at c_bands before calling an iterative solver
           178 MiB given to the printing process from OS
             0 MiB allocation reported by mallinfo(arena+hblkhd)
        121912 MiB available memory on the node where the printing process lives
------------------
     ethr =  6.31E-10,  avg # of iterations =  1.6

     total cpu time spent up to now is        1.7 secs

     End of self-consistent calculation

          k = 0.0000 0.0000 0.0000 (   315 PWs)   bands (ev):

    -6.9746  15.1144  30.4117  42.8822  55.2814  68.4512

     occupation numbers 
     1.0000   1.0000   0.0000   0.0000   0.0000   0.0000

          k = 0.0000 0.0000-0.7686 (   320 PWs)   bands (ev):

     9.7519  26.6378  26.9421  36.2749  48.3948  55.4442

     occupation numbers 
     1.0000   0.0000   0.0000   0.0000   0.0000   0.0000

          k = 0.0000-0.3846 0.0000 (   320 PWs)   bands (ev):

    -3.3954   4.0386  43.3913  51.4832  55.6306  64.9947

     occupation numbers 
     1.0000   1.0000   0.0000   0.0000   0.0000   0.0000

          k = 0.0000-0.3846-0.7686 (   312 PWs)   bands (ev):

    10.8512  27.4567  29.5286  31.2191  40.1799  54.1721

     occupation numbers 
     1.0000   0.0000   0.0000   0.0000   0.0000   0.0000

          k =-0.5000 0.0000 1.2071 (   322 PWs)   bands (ev):

     3.6399  12.4360  26.3935  45.6838  45.9138  49.7753

     occupation numbers 
     1.0000   1.0000   0.0000   0.0000   0.0000   0.0000

          k =-0.5000 0.0000 0.4385 (   304 PWs)   bands (ev):

     5.0158  17.9511  30.7934  44.2534  48.9475  49.7402

     occupation numbers 
     1.0000   1.0000   0.0000   0.0000   0.0000   0.0000

          k =-0.5000-0.3846 1.2071 (   316 PWs)   bands (ev):

     5.1888  16.6018  18.1125  29.4487  53.8329  64.6319

     occupation numbers 
     1.0000   1.0000   1.0000   0.0000   0.0000   0.0000

          k =-0.5000-0.3846 0.4385 (   312 PWs)   bands (ev):

     6.2994  22.3247  22.7545  33.2776  45.0830  66.8435

     occupation numbers 
     1.0000   1.0000   1.0000   0.0000   0.0000   0.0000

     the Fermi energy is    25.9391 ev

!    total energy              =     -10.94245852 Ry
     estimated scf accuracy    <          1.5E-10 Ry
     smearing contrib. (-TS)   =      -0.00000000 Ry
     internal energy E=F+TS    =     -10.94245852 Ry

     The total energy is F=E-TS. E is the sum of the following terms:
     one-electron contribution =       5.87579538 Ry
     hartree contribution      =       1.08825959 Ry
     xc contribution           =      -3.91934830 Ry
     ewald contribution        =     -13.98716519 Ry

     convergence has been achieved in   6 iterations

     Writing all to output data dir sweeps/MCL_-12/MCL_01.save/ :
     XML data file, charge density, pseudopotentials, collected wavefunctions
 
     init_run     :     12.18s CPU      0.23s WALL (       1 calls)
     electrons    :     94.79s CPU      1.50s WALL (       1 calls)

     Called by init_run:
     wfcinit      :      4.66s CPU      0.08s WALL (       1 calls)
     wfcinit:atom :      0.09s CPU      0.00s WALL (       8 calls)
     wfcinit:wfcr :      4.28s CPU      0.07s WALL (       8 calls)
     potinit      :      3.21s CPU      0.05s WALL (       1 calls)
     hinit0       :      4.31s CPU      0.10s WALL (       1 calls)

     Called by electrons:
     c_bands      :     77.21s CPU      1.22s WALL (       6 calls)
     sum_band     :     15.10s CPU      0.23s WALL (       6 calls)
     v_of_rho     :      2.05s CPU      0.03s WALL (       7 calls)
     v_h          :      0.68s CPU      0.01s WALL (       7 calls)
     v_xc         :      1.36s CPU      0.02s WALL (       7 calls)
     mix_rho      :      0.39s CPU      0.01s WALL (       6 calls)

     Called by c_bands:
     init_us_2    :      2.13s CPU      0.03s WALL (     104 calls)
     cegterg      :     75.03s CPU      1.19s WALL (      48 calls)

     Called by sum_band:
     sum_band:wei :      0.01s CPU      0.00s WALL (       6 calls)
     sum_band:loo :     14.40s CPU      0.22s WALL (       6 calls)
     sum_band:buf :      0.04s CPU      0.00s WALL (      48 calls)
     sum_band:ini :      0.70s CPU      0.01s WALL (      48 calls)

     Called by *egterg:
     cdiaghg      :      0.82s CPU      0.01s WALL (     173 calls)
     cegterg:over :      0.24s CPU      0.00s WALL (     125 calls)
     cegterg:upda :      2.72s CPU      0.04s WALL (     125 calls)
     cegterg:last :      0.16s CPU      0.00s WALL (     100 calls)
     h_psi        :     71.68s CPU      1.14s WALL (     181 calls)
     g_psi        :      1.32s CPU      0.02s WALL (     125 calls)

     Called by h_psi:
     h_psi:calbec :      0.42s CPU      0.01s WALL (     181 calls)
     vloc_psi     :     68.55s CPU      1.09s WALL (     181 calls)
     add_vuspsi   :      0.26s CPU      0.00s WALL (     181 calls)

     General routines
     calbec       :      0.25s CPU      0.00s WALL (     181 calls)
     fft          :      1.68s CPU      0.03s WALL (      69 calls)
     ffts         :      0.06s CPU      0.00s WALL (       6 calls)
     fftw         :     30.61s CPU      0.48s WALL (    1854 calls)
 
     Parallel routines
 
     PWSCF        :   1m49.00s CPU      1.78s WALL

 
   This run was terminated on:  11:47:40  17Jun2025            

=------------------------------------------------------------------------------=
   JOB DONE.
=------------------------------------------------------------------------------=
