
     Program PWSCF v.7.3.1 starts on 17Jun2025 at 11:47:50 

     This program is part of the open-source Quantum ESPRESSO suite
     for quantum simulation of materials; please cite
         "P. Giannozzi et al., J. Phys.:Condens. Matter 21 395502 (2009);
         "P. Giannozzi et al., J. Phys.:Condens. Matter 29 465901 (2017);
         "P. Giannozzi et al., J. Chem. Phys. 152 154105 (2020);
          URL http://www.quantum-espresso.org", 
     in publications or presentations arising from this work. More details at
     http://www.quantum-espresso.org/quote

     Parallel version (MPI & OpenMP), running on      96 processor cores
     Number of MPI processes:                 1
     Threads/MPI process:                    96

     MPI processes distributed on     1 nodes
     121965 MiB available memory on the printing compute node when the environment starts
 
     Waiting for input...
     Reading input from standard input

     Current dimensions of program PWSCF are:
     Max number of different atomic species (ntypx) = 10
     Max number of k-points (npk) =  40000
     Max angular momentum in pseudopotentials (lmaxx) =  4
 
     Subspace diagonalization in iterative solution of the eigenvalue problem:
     a serial algorithm will be used

 
     G-vector sticks info
     --------------------
     sticks:   dense  smooth     PW     G-vecs:    dense   smooth      PW
     Sum        2921    2921    813               165175   165175   23833
 
     Using Slab Decomposition
 


     bravais-lattice index     =          -12
     lattice parameter (alat)  =       9.4248  a.u.
     unit-cell volume          =    1709.3107 (a.u.)^3
     number of atoms/cell      =            1
     number of atomic types    =            1
     number of electrons       =         4.00
     number of Kohn-Sham states=            6
     kinetic-energy cutoff     =      80.0000  Ry
     charge density cutoff     =     320.0000  Ry
     scf convergence threshold =      1.0E-08
     mixing beta               =       0.7000
     number of iterations used =            8  plain     mixing
     Exchange-correlation= PBE
                           (   1   4   3   4   0   0   0)

     celldm(1)=   9.424778  celldm(2)=   1.300000  celldm(3)=   1.700000
     celldm(4)=   0.000000  celldm(5)=   0.382683  celldm(6)=   0.000000

     crystal axes: (cart. coord. in units of alat)
               a(1) = (   1.000000   0.000000   0.000000 )  
               a(2) = (   0.000000   1.300000   0.000000 )  
               a(3) = (   0.650562   0.000000   1.570595 )  

     reciprocal axes: (cart. coord. in units 2 pi/alat)
               b(1) = (  1.000000  0.000000 -0.414214 )  
               b(2) = (  0.000000  0.769231  0.000000 )  
               b(3) = (  0.000000  0.000000  0.636701 )  


     PseudoPot. # 1 for C  read from file:
     ./C_ONCV_PBE_sr.upf
     MD5 check sum: b68b6074392897e22e8b22f1bd7aa93e
     Pseudo is Norm-conserving, Zval =  4.0
     Generated using ONCVPSP code by D. R. Hamann
     Using radial grid of 1248 points,  4 beta functions with: 
                l(1) =   0
                l(2) =   0
                l(3) =   1
                l(4) =   1

     atomic species   valence    mass     pseudopotential
     C                 4.00    10.81100     C ( 1.00)

      4 Sym. Ops., with inversion, found


                                    s                        frac. trans.

      isym =  1     identity                                     

 cryst.   s( 1) = (     1          0          0      )
                  (     0          1          0      )
                  (     0          0          1      )

 cart.    s( 1) = (  1.0000000  0.0000000  0.0000000 )
                  (  0.0000000  1.0000000  0.0000000 )
                  (  0.0000000  0.0000000  1.0000000 )


      isym =  2     180 deg rotation - cart. axis [0,1,0]        

 cryst.   s( 2) = (    -1          0          0      )
                  (     0          1          0      )
                  (     0          0         -1      )

 cart.    s( 2) = ( -1.0000000  0.0000000  0.0000000 )
                  (  0.0000000  1.0000000  0.0000000 )
                  (  0.0000000  0.0000000 -1.0000000 )


      isym =  3     inversion                                    

 cryst.   s( 3) = (    -1          0          0      )
                  (     0         -1          0      )
                  (     0          0         -1      )

 cart.    s( 3) = ( -1.0000000  0.0000000  0.0000000 )
                  (  0.0000000 -1.0000000  0.0000000 )
                  (  0.0000000  0.0000000 -1.0000000 )


      isym =  4     inv. 180 deg rotation - cart. axis [0,1,0]   

 cryst.   s( 4) = (     1          0          0      )
                  (     0         -1          0      )
                  (     0          0          1      )

 cart.    s( 4) = (  1.0000000  0.0000000  0.0000000 )
                  (  0.0000000 -1.0000000  0.0000000 )
                  (  0.0000000  0.0000000  1.0000000 )


     point group C_2h (2/m) 
     there are  4 classes
     the character table:

       E     C2    i     s_h  
A_g    1.00  1.00  1.00  1.00
B_g    1.00 -1.00  1.00 -1.00
A_u    1.00  1.00 -1.00 -1.00
B_u    1.00 -1.00 -1.00  1.00

     the symmetry operations in each class and the name of the first element:

     E        1
          identity                                               
     C2       2
          180 deg rotation - cart. axis [0,1,0]                  
     i        3
          inversion                                              
     s_h      4
          inv. 180 deg rotation - cart. axis [0,1,0]             

   Cartesian axes

     site n.     atom                  positions (alat units)
         1        C      tau(   1) = (   0.0000000   0.0000000   0.0000000  )

   Crystallographic axes

     site n.     atom                  positions (cryst. coord.)
         1        C      tau(   1) = (  0.0000000  0.0000000  0.0000000  )

     number of k points=     8  Gaussian smearing, width (Ry)=  0.0050
                       cart. coord. in units 2pi/alat
        k(    1) = (   0.0000000   0.0000000   0.0000000), wk =   0.2500000
        k(    2) = (   0.0000000   0.0000000  -0.3183506), wk =   0.2500000
        k(    3) = (   0.0000000  -0.3846154   0.0000000), wk =   0.2500000
        k(    4) = (   0.0000000  -0.3846154  -0.3183506), wk =   0.2500000
        k(    5) = (  -0.5000000   0.0000000   0.2071068), wk =   0.2500000
        k(    6) = (  -0.5000000   0.0000000  -0.1112439), wk =   0.2500000
        k(    7) = (  -0.5000000  -0.3846154   0.2071068), wk =   0.2500000
        k(    8) = (  -0.5000000  -0.3846154  -0.1112439), wk =   0.2500000

                       cryst. coord.
        k(    1) = (   0.0000000   0.0000000   0.0000000), wk =   0.2500000
        k(    2) = (   0.0000000   0.0000000  -0.5000000), wk =   0.2500000
        k(    3) = (   0.0000000  -0.5000000   0.0000000), wk =   0.2500000
        k(    4) = (   0.0000000  -0.5000000  -0.5000000), wk =   0.2500000
        k(    5) = (  -0.5000000   0.0000000   0.0000000), wk =   0.2500000
        k(    6) = (  -0.5000000   0.0000000  -0.5000000), wk =   0.2500000
        k(    7) = (  -0.5000000  -0.5000000   0.0000000), wk =   0.2500000
        k(    8) = (  -0.5000000  -0.5000000  -0.5000000), wk =   0.2500000

     Dense  grid:   165175 G-vectors     FFT dimensions: (  54,  72,  96)

     Dynamical RAM for                 wfc:       1.89 MB

     Dynamical RAM for     wfc (w. buffer):      17.02 MB

     Dynamical RAM for           str. fact:       2.52 MB

     Dynamical RAM for           local pot:       0.00 MB

     Dynamical RAM for          nlocal pot:       2.52 MB

     Dynamical RAM for                qrad:       0.41 MB

     Dynamical RAM for          rho,v,vnew:      16.10 MB

     Dynamical RAM for               rhoin:       5.37 MB

     Dynamical RAM for            rho*nmix:      40.33 MB

     Dynamical RAM for           G-vectors:      10.71 MB

     Dynamical RAM for          h,s,v(r/c):       0.01 MB

     Dynamical RAM for          <psi|beta>:       0.00 MB

     Dynamical RAM for                 psi:       3.78 MB

     Dynamical RAM for                hpsi:       3.78 MB

     Dynamical RAM for      wfcinit/wfcrot:       3.78 MB

     Estimated static dynamical RAM per process >      73.93 MB

     Estimated max dynamical RAM per process >     121.83 MB

     Initial potential from superposition of free atoms

     starting charge       4.0000, renormalised to       4.0000

     negative rho (up, down):  4.728E-08 0.000E+00
     Starting wfcs are    4 randomized atomic wfcs +    2 random wfcs

     total cpu time spent up to now is        0.8 secs

     Self-consistent Calculation

     iteration #  1     ecut=    80.00 Ry     beta= 0.70
     Davidson diagonalization with overlap

---- Real-time Memory Report at c_bands before calling an iterative solver
           256 MiB given to the printing process from OS
             0 MiB allocation reported by mallinfo(arena+hblkhd)
        121795 MiB available memory on the node where the printing process lives
------------------
     ethr =  1.00E-02,  avg # of iterations =  8.1

     Threshold (ethr) on eigenvalues was too large:
     Diagonalizing with lowered threshold

     Davidson diagonalization with overlap

---- Real-time Memory Report at c_bands before calling an iterative solver
           268 MiB given to the printing process from OS
             0 MiB allocation reported by mallinfo(arena+hblkhd)
        121796 MiB available memory on the node where the printing process lives
------------------
     ethr =  1.93E-04,  avg # of iterations =  3.8

     total cpu time spent up to now is        5.1 secs

     total energy              =     -10.73653275 Ry
     estimated scf accuracy    <       0.00775620 Ry

     iteration #  2     ecut=    80.00 Ry     beta= 0.70
     Davidson diagonalization with overlap

---- Real-time Memory Report at c_bands before calling an iterative solver
           346 MiB given to the printing process from OS
             0 MiB allocation reported by mallinfo(arena+hblkhd)
        121694 MiB available memory on the node where the printing process lives
------------------
     ethr =  1.94E-04,  avg # of iterations =  1.0

     total cpu time spent up to now is        6.6 secs

     total energy              =     -10.73656425 Ry
     estimated scf accuracy    <       0.01449894 Ry

     iteration #  3     ecut=    80.00 Ry     beta= 0.70
     Davidson diagonalization with overlap

---- Real-time Memory Report at c_bands before calling an iterative solver
           359 MiB given to the printing process from OS
             0 MiB allocation reported by mallinfo(arena+hblkhd)
        121675 MiB available memory on the node where the printing process lives
------------------
     ethr =  1.94E-04,  avg # of iterations =  1.0

     total cpu time spent up to now is        8.5 secs

     total energy              =     -10.73751369 Ry
     estimated scf accuracy    <       0.00061198 Ry

     iteration #  4     ecut=    80.00 Ry     beta= 0.70
     Davidson diagonalization with overlap

---- Real-time Memory Report at c_bands before calling an iterative solver
           364 MiB given to the printing process from OS
             0 MiB allocation reported by mallinfo(arena+hblkhd)
        121669 MiB available memory on the node where the printing process lives
------------------
     ethr =  1.53E-05,  avg # of iterations =  3.1

     total cpu time spent up to now is       10.3 secs

     total energy              =     -10.73751782 Ry
     estimated scf accuracy    <       0.00014907 Ry

     iteration #  5     ecut=    80.00 Ry     beta= 0.70
     Davidson diagonalization with overlap

---- Real-time Memory Report at c_bands before calling an iterative solver
           370 MiB given to the printing process from OS
             0 MiB allocation reported by mallinfo(arena+hblkhd)
        121644 MiB available memory on the node where the printing process lives
------------------
     ethr =  3.73E-06,  avg # of iterations =  5.4

     total cpu time spent up to now is       12.3 secs

     total energy              =     -10.73751381 Ry
     estimated scf accuracy    <       0.00005048 Ry

     iteration #  6     ecut=    80.00 Ry     beta= 0.70
     Davidson diagonalization with overlap

---- Real-time Memory Report at c_bands before calling an iterative solver
           377 MiB given to the printing process from OS
             0 MiB allocation reported by mallinfo(arena+hblkhd)
        121654 MiB available memory on the node where the printing process lives
------------------
     ethr =  1.26E-06,  avg # of iterations =  2.4

     total cpu time spent up to now is       13.8 secs

     total energy              =     -10.73751707 Ry
     estimated scf accuracy    <       0.00000311 Ry

     iteration #  7     ecut=    80.00 Ry     beta= 0.70
     Davidson diagonalization with overlap

---- Real-time Memory Report at c_bands before calling an iterative solver
           382 MiB given to the printing process from OS
             0 MiB allocation reported by mallinfo(arena+hblkhd)
        121648 MiB available memory on the node where the printing process lives
------------------
     ethr =  7.77E-08,  avg # of iterations =  1.0

     total cpu time spent up to now is       15.3 secs

     total energy              =     -10.73751710 Ry
     estimated scf accuracy    <       0.00000037 Ry

     iteration #  8     ecut=    80.00 Ry     beta= 0.70
     Davidson diagonalization with overlap

---- Real-time Memory Report at c_bands before calling an iterative solver
           387 MiB given to the printing process from OS
             0 MiB allocation reported by mallinfo(arena+hblkhd)
        121639 MiB available memory on the node where the printing process lives
------------------
     ethr =  9.25E-09,  avg # of iterations =  1.0

     total cpu time spent up to now is       16.7 secs

     total energy              =     -10.73751711 Ry
     estimated scf accuracy    <       0.00000002 Ry

     iteration #  9     ecut=    80.00 Ry     beta= 0.70
     Davidson diagonalization with overlap

---- Real-time Memory Report at c_bands before calling an iterative solver
           392 MiB given to the printing process from OS
             0 MiB allocation reported by mallinfo(arena+hblkhd)
        121654 MiB available memory on the node where the printing process lives
------------------
     ethr =  3.89E-10,  avg # of iterations =  1.0

     total cpu time spent up to now is       18.1 secs

     End of self-consistent calculation

          k = 0.0000 0.0000 0.0000 ( 20667 PWs)   bands (ev):

   -13.4081  -4.9575  -4.9378  -4.7616  -0.5408   1.8775

     occupation numbers 
     1.0000   0.4215   0.2718   0.0000   0.0000   0.0000

          k = 0.0000 0.0000-0.3184 ( 20632 PWs)   bands (ev):

   -13.4080  -4.9651  -4.9373  -4.7617  -0.0256   0.2868

     occupation numbers 
     1.0000   0.4838   0.2687   0.0000   0.0000   0.0000

          k = 0.0000-0.3846 0.0000 ( 20682 PWs)   bands (ev):

   -13.4070  -4.9788  -4.9529  -4.7598   0.3558   0.4847

     occupation numbers 
     1.0000   0.5971   0.3847   0.0000   0.0000   0.0000

          k = 0.0000-0.3846-0.3184 ( 20668 PWs)   bands (ev):

   -13.4069  -4.9778  -4.9595  -4.7599   0.9325   1.0320

     occupation numbers 
     1.0000   0.5885   0.4381   0.0000   0.0000   0.0000

          k =-0.5000 0.0000 0.2071 ( 20676 PWs)   bands (ev):

   -13.3884  -5.0092  -4.9238  -4.9044   1.2644   1.3044

     occupation numbers 
     1.0000   0.8098   0.1846   0.0965   0.0000   0.0000

          k =-0.5000 0.0000-0.1112 ( 20670 PWs)   bands (ev):

   -13.3884  -5.0097  -4.9215  -4.9045   1.0831   1.1405

     occupation numbers 
     1.0000   0.8127   0.1721   0.0970   0.0000   0.0000

          k =-0.5000-0.3846 0.2071 ( 20588 PWs)   bands (ev):

   -13.3875  -5.0024  -4.9354  -4.9202   1.8361   2.1585

     occupation numbers 
     1.0000   0.7691   0.2552   0.1653   0.0000   0.0000

          k =-0.5000-0.3846-0.1112 ( 20592 PWs)   bands (ev):

   -13.3875  -5.0028  -4.9356  -4.9181   1.7128   1.9959

     occupation numbers 
     1.0000   0.7718   0.2571   0.1547   0.0000   0.0000

     the Fermi energy is    -4.9670 ev

!    total energy              =     -10.73751712 Ry
     estimated scf accuracy    <          7.3E-10 Ry
     smearing contrib. (-TS)   =      -0.00543205 Ry
     internal energy E=F+TS    =     -10.73208507 Ry

     The total energy is F=E-TS. E is the sum of the following terms:
     one-electron contribution =      -9.59067148 Ry
     hartree contribution      =       5.26028022 Ry
     xc contribution           =      -2.81146566 Ry
     ewald contribution        =      -3.59022814 Ry

     convergence has been achieved in   9 iterations

     Writing all to output data dir sweeps/MCL_-12/MCL_03.save/ :
     XML data file, charge density, pseudopotentials, collected wavefunctions
 
     init_run     :     39.68s CPU      0.81s WALL (       1 calls)
     electrons    :   1525.92s CPU     17.31s WALL (       1 calls)

     Called by init_run:
     wfcinit      :     29.97s CPU      0.54s WALL (       1 calls)
     wfcinit:atom :      0.51s CPU      0.01s WALL (       8 calls)
     wfcinit:wfcr :     27.25s CPU      0.49s WALL (       8 calls)
     potinit      :      6.30s CPU      0.12s WALL (       1 calls)
     hinit0       :      3.36s CPU      0.09s WALL (       1 calls)

     Called by electrons:
     c_bands      :   1158.58s CPU     13.21s WALL (      10 calls)
     sum_band     :    278.60s CPU      3.10s WALL (      10 calls)
     v_of_rho     :     61.00s CPU      0.72s WALL (      10 calls)
     v_h          :      5.97s CPU      0.07s WALL (      10 calls)
     v_xc         :     55.01s CPU      0.65s WALL (      10 calls)
     mix_rho      :     26.51s CPU      0.29s WALL (      10 calls)

     Called by c_bands:
     init_us_2    :     32.12s CPU      0.37s WALL (     168 calls)
     cegterg      :   1132.69s CPU     12.92s WALL (      80 calls)

     Called by sum_band:
     sum_band:wei :      0.21s CPU      0.00s WALL (      10 calls)
     sum_band:loo :    244.93s CPU      2.72s WALL (      10 calls)
     sum_band:buf :      3.11s CPU      0.03s WALL (      80 calls)
     sum_band:ini :     14.19s CPU      0.16s WALL (      80 calls)

     Called by *egterg:
     cdiaghg      :      2.29s CPU      0.03s WALL (     294 calls)
     cegterg:over :     21.41s CPU      0.24s WALL (     222 calls)
     cegterg:upda :     14.24s CPU      0.16s WALL (     222 calls)
     cegterg:last :     10.58s CPU      0.12s WALL (     131 calls)
     h_psi        :   1092.87s CPU     12.63s WALL (     310 calls)
     g_psi        :      1.44s CPU      0.02s WALL (     222 calls)

     Called by h_psi:
     h_psi:calbec :     17.34s CPU      0.20s WALL (     310 calls)
     vloc_psi     :   1058.92s CPU     12.25s WALL (     310 calls)
     add_vuspsi   :     10.73s CPU      0.12s WALL (     310 calls)

     General routines
     calbec       :     16.70s CPU      0.19s WALL (     310 calls)
     fft          :     31.65s CPU      0.38s WALL (     100 calls)
     ffts         :      3.48s CPU      0.04s WALL (      10 calls)
     fftw         :   1132.95s CPU     12.92s WALL (    2922 calls)
 
     Parallel routines
 
     PWSCF        :  26m13.53s CPU     18.23s WALL

 
   This run was terminated on:  11:48: 8  17Jun2025            

=------------------------------------------------------------------------------=
   JOB DONE.
=------------------------------------------------------------------------------=
