
     Program PWSCF v.7.3.1 starts on 17Jun2025 at 11:43:24 

     This program is part of the open-source Quantum ESPRESSO suite
     for quantum simulation of materials; please cite
         "P. Giannozzi et al., J. Phys.:Condens. Matter 21 395502 (2009);
         "P. Giannozzi et al., J. Phys.:Condens. Matter 29 465901 (2017);
         "P. Giannozzi et al., J. Chem. Phys. 152 154105 (2020);
          URL http://www.quantum-espresso.org", 
     in publications or presentations arising from this work. More details at
     http://www.quantum-espresso.org/quote

     Parallel version (MPI & OpenMP), running on      96 processor cores
     Number of MPI processes:                 1
     Threads/MPI process:                    96

     MPI processes distributed on     1 nodes
     122300 MiB available memory on the printing compute node when the environment starts
 
     Waiting for input...
     Reading input from standard input
Warning: card &IONS ignored
Warning: card     ION_DYNAMICS = 'BFGS' ignored
Warning: card /&END ignored

     Current dimensions of program PWSCF are:
     Max number of different atomic species (ntypx) = 10
     Max number of k-points (npk) =  40000
     Max angular momentum in pseudopotentials (lmaxx) =  4

     Atomic positions and unit cell read from directory:
     sweeps/BCT1_7/BCT1_02.save/
 
 
     Subspace diagonalization in iterative solution of the eigenvalue problem:
     a serial algorithm will be used

 
     G-vector sticks info
     --------------------
     sticks:   dense  smooth     PW     G-vecs:    dense   smooth      PW
     Sum        1347    1347    403                26925    26925    4277
 
     Using Slab Decomposition
 


     bravais-lattice index     =            7
     lattice parameter (alat)  =       9.4248  a.u.
     unit-cell volume          =     279.0565 (a.u.)^3
     number of atoms/cell      =            1
     number of atomic types    =            1
     number of electrons       =         4.00
     number of Kohn-Sham states=            6
     kinetic-energy cutoff     =      80.0000  Ry
     charge density cutoff     =     320.0000  Ry
     Exchange-correlation= PBE
                           (   1   4   3   4   0   0   0)

     celldm(1)=   9.424778  celldm(2)=   0.000000  celldm(3)=   0.666667
     celldm(4)=   0.000000  celldm(5)=   0.000000  celldm(6)=   0.000000

     crystal axes: (cart. coord. in units of alat)
               a(1) = (   0.500000  -0.500000   0.333333 )  
               a(2) = (   0.500000   0.500000   0.333333 )  
               a(3) = (  -0.500000  -0.500000   0.333333 )  

     reciprocal axes: (cart. coord. in units 2 pi/alat)
               b(1) = (  1.000000 -1.000000  0.000000 )  
               b(2) = (  0.000000  1.000000  1.500000 )  
               b(3) = ( -1.000000  0.000000  1.500000 )  


     PseudoPot. # 1 for C  read from file:
     ./C_ONCV_PBE_sr.upf
     MD5 check sum: b68b6074392897e22e8b22f1bd7aa93e
     Pseudo is Norm-conserving, Zval =  4.0
     Generated using ONCVPSP code by D. R. Hamann
     Using radial grid of 1248 points,  4 beta functions with: 
                l(1) =   0
                l(2) =   0
                l(3) =   1
                l(4) =   1

     atomic species   valence    mass     pseudopotential
     C                 4.00    10.81100     C ( 1.00)

     16 Sym. Ops., with inversion, found


                                    s                        frac. trans.

      isym =  1     identity                                     

 cryst.   s( 1) = (     1          0          0      )
                  (     0          1          0      )
                  (     0          0          1      )

 cart.    s( 1) = (  1.0000000  0.0000000  0.0000000 )
                  (  0.0000000  1.0000000  0.0000000 )
                  (  0.0000000  0.0000000  1.0000000 )


      isym =  2     180 deg rotation - cart. axis [0,0,1]        

 cryst.   s( 2) = (    -1          1          1      )
                  (     0          0          1      )
                  (     0          1          0      )

 cart.    s( 2) = ( -1.0000000  0.0000000  0.0000000 )
                  (  0.0000000 -1.0000000  0.0000000 )
                  (  0.0000000  0.0000000  1.0000000 )


      isym =  3     180 deg rotation - cart. axis [0,1,0]        

 cryst.   s( 3) = (     0         -1          0      )
                  (    -1          0          0      )
                  (     1         -1         -1      )

 cart.    s( 3) = ( -1.0000000  0.0000000  0.0000000 )
                  (  0.0000000  1.0000000  0.0000000 )
                  (  0.0000000  0.0000000 -1.0000000 )


      isym =  4     180 deg rotation - cart. axis [1,0,0]        

 cryst.   s( 4) = (     0          0         -1      )
                  (     1         -1         -1      )
                  (    -1          0          0      )

 cart.    s( 4) = (  1.0000000  0.0000000  0.0000000 )
                  (  0.0000000 -1.0000000  0.0000000 )
                  (  0.0000000  0.0000000 -1.0000000 )


      isym =  5     180 deg rotation - cart. axis [1,1,0]        

 cryst.   s( 5) = (    -1          0          0      )
                  (     0          0         -1      )
                  (     0         -1          0      )

 cart.    s( 5) = (  0.0000000  1.0000000  0.0000000 )
                  (  1.0000000  0.0000000  0.0000000 )
                  (  0.0000000  0.0000000 -1.0000000 )


      isym =  6     180 deg rotation - cart. axis [1,-1,0]       

 cryst.   s( 6) = (     1         -1         -1      )
                  (     0         -1          0      )
                  (     0          0         -1      )

 cart.    s( 6) = (  0.0000000 -1.0000000  0.0000000 )
                  ( -1.0000000  0.0000000  0.0000000 )
                  (  0.0000000  0.0000000 -1.0000000 )


      isym =  7      90 deg rotation - cart. axis [0,0,-1]       

 cryst.   s( 7) = (     0          0          1      )
                  (     1          0          0      )
                  (    -1          1          1      )

 cart.    s( 7) = (  0.0000000  1.0000000  0.0000000 )
                  ( -1.0000000  0.0000000  0.0000000 )
                  (  0.0000000  0.0000000  1.0000000 )


      isym =  8      90 deg rotation - cart. axis [0,0,1]        

 cryst.   s( 8) = (     0          1          0      )
                  (    -1          1          1      )
                  (     1          0          0      )

 cart.    s( 8) = (  0.0000000 -1.0000000  0.0000000 )
                  (  1.0000000  0.0000000  0.0000000 )
                  (  0.0000000  0.0000000  1.0000000 )


      isym =  9     inversion                                    

 cryst.   s( 9) = (    -1          0          0      )
                  (     0         -1          0      )
                  (     0          0         -1      )

 cart.    s( 9) = ( -1.0000000  0.0000000  0.0000000 )
                  (  0.0000000 -1.0000000  0.0000000 )
                  (  0.0000000  0.0000000 -1.0000000 )


      isym = 10     inv. 180 deg rotation - cart. axis [0,0,1]   

 cryst.   s(10) = (     1         -1         -1      )
                  (     0          0         -1      )
                  (     0         -1          0      )

 cart.    s(10) = (  1.0000000  0.0000000  0.0000000 )
                  (  0.0000000  1.0000000  0.0000000 )
                  (  0.0000000  0.0000000 -1.0000000 )


      isym = 11     inv. 180 deg rotation - cart. axis [0,1,0]   

 cryst.   s(11) = (     0          1          0      )
                  (     1          0          0      )
                  (    -1          1          1      )

 cart.    s(11) = (  1.0000000  0.0000000  0.0000000 )
                  (  0.0000000 -1.0000000  0.0000000 )
                  (  0.0000000  0.0000000  1.0000000 )


      isym = 12     inv. 180 deg rotation - cart. axis [1,0,0]   

 cryst.   s(12) = (     0          0          1      )
                  (    -1          1          1      )
                  (     1          0          0      )

 cart.    s(12) = ( -1.0000000  0.0000000  0.0000000 )
                  (  0.0000000  1.0000000  0.0000000 )
                  (  0.0000000  0.0000000  1.0000000 )


      isym = 13     inv. 180 deg rotation - cart. axis [1,1,0]   

 cryst.   s(13) = (     1          0          0      )
                  (     0          0          1      )
                  (     0          1          0      )

 cart.    s(13) = (  0.0000000 -1.0000000  0.0000000 )
                  ( -1.0000000  0.0000000  0.0000000 )
                  (  0.0000000  0.0000000  1.0000000 )


      isym = 14     inv. 180 deg rotation - cart. axis [1,-1,0]  

 cryst.   s(14) = (    -1          1          1      )
                  (     0          1          0      )
                  (     0          0          1      )

 cart.    s(14) = (  0.0000000  1.0000000  0.0000000 )
                  (  1.0000000  0.0000000  0.0000000 )
                  (  0.0000000  0.0000000  1.0000000 )


      isym = 15     inv.  90 deg rotation - cart. axis [0,0,-1]  

 cryst.   s(15) = (     0          0         -1      )
                  (    -1          0          0      )
                  (     1         -1         -1      )

 cart.    s(15) = (  0.0000000 -1.0000000  0.0000000 )
                  (  1.0000000  0.0000000  0.0000000 )
                  (  0.0000000  0.0000000 -1.0000000 )


      isym = 16     inv.  90 deg rotation - cart. axis [0,0,1]   

 cryst.   s(16) = (     0         -1          0      )
                  (     1         -1         -1      )
                  (    -1          0          0      )

 cart.    s(16) = (  0.0000000  1.0000000  0.0000000 )
                  ( -1.0000000  0.0000000  0.0000000 )
                  (  0.0000000  0.0000000 -1.0000000 )


     point group D_4h(4/mmm)
     there are 10 classes
     the character table:

       E     2C4   C2    2C2'  2C2'' i     2S4   s_h   2s_v  2s_d 
A_1g   1.00  1.00  1.00  1.00  1.00  1.00  1.00  1.00  1.00  1.00
A_2g   1.00  1.00  1.00 -1.00 -1.00  1.00  1.00  1.00 -1.00 -1.00
B_1g   1.00 -1.00  1.00  1.00 -1.00  1.00 -1.00  1.00  1.00 -1.00
B_2g   1.00 -1.00  1.00 -1.00  1.00  1.00 -1.00  1.00 -1.00  1.00
E_g    2.00  0.00 -2.00  0.00  0.00  2.00  0.00 -2.00  0.00  0.00
A_1u   1.00  1.00  1.00  1.00  1.00 -1.00 -1.00 -1.00 -1.00 -1.00
A_2u   1.00  1.00  1.00 -1.00 -1.00 -1.00 -1.00 -1.00  1.00  1.00
B_1u   1.00 -1.00  1.00  1.00 -1.00 -1.00  1.00 -1.00 -1.00  1.00
B_2u   1.00 -1.00  1.00 -1.00  1.00 -1.00  1.00 -1.00  1.00 -1.00
E_u    2.00  0.00 -2.00  0.00  0.00 -2.00  0.00  2.00  0.00  0.00

     the symmetry operations in each class and the name of the first element:

     E        1
          identity                                               
     2C4      7    8
           90 deg rotation - cart. axis [0,0,-1]                 
     C2       2
          180 deg rotation - cart. axis [0,0,1]                  
     2C2'     3    4
          180 deg rotation - cart. axis [0,1,0]                  
     2C2''    5    6
          180 deg rotation - cart. axis [1,1,0]                  
     i        9
          inversion                                              
     2S4     15   16
          inv.  90 deg rotation - cart. axis [0,0,-1]            
     s_h     10
          inv. 180 deg rotation - cart. axis [0,0,1]             
     2s_v    11   12
          inv. 180 deg rotation - cart. axis [0,1,0]             
     2s_d    13   14
          inv. 180 deg rotation - cart. axis [1,1,0]             

   Cartesian axes

     site n.     atom                  positions (alat units)
         1        C      tau(   1) = (   0.0000000   0.0000000   0.0000000  )

   Crystallographic axes

     site n.     atom                  positions (cryst. coord.)
         1        C      tau(   1) = (  0.0000000  0.0000000  0.0000000  )

     number of k points=     6  Gaussian smearing, width (Ry)=  0.0050
                       cart. coord. in units 2pi/alat
        k(    1) = (   1.0000000   0.0000000   0.0000000), wk =   0.3333333
        k(    2) = (   0.5000000   0.0000000   0.7500000), wk =   0.3333333
        k(    3) = (   0.5000000   0.5000000   0.7500000), wk =   0.3333333
        k(    4) = (   0.5000000   0.5000000   0.0000000), wk =   0.3333333
        k(    5) = (   0.0000000   0.0000000   1.0833333), wk =   0.3333333
        k(    6) = (   1.0000000   0.0000000   0.4166667), wk =   0.3333333

                       cryst. coord.
        k(    1) = (   0.5000000   0.5000000  -0.5000000), wk =   0.3333333
        k(    2) = (   0.5000000   0.5000000   0.0000000), wk =   0.3333333
        k(    3) = (   0.2500000   0.7500000  -0.2500000), wk =   0.3333333
        k(    4) = (   0.0000000   0.5000000  -0.5000000), wk =   0.3333333
        k(    5) = (   0.3611111   0.3611111   0.3611111), wk =   0.3333333
        k(    6) = (   0.6388889   0.6388889  -0.3611111), wk =   0.3333333

     Dense  grid:    26925 G-vectors     FFT dimensions: (  45,  45,  45)

     Dynamical RAM for                 wfc:       0.31 MB

     Dynamical RAM for     wfc (w. buffer):       0.31 MB

     Dynamical RAM for           str. fact:       0.41 MB

     Dynamical RAM for           local pot:       0.00 MB

     Dynamical RAM for          nlocal pot:       0.41 MB

     Dynamical RAM for                qrad:       0.41 MB

     Dynamical RAM for          rho,v,vnew:       3.32 MB

     Dynamical RAM for           G-vectors:       1.75 MB

     Dynamical RAM for          h,s,v(r/c):       0.01 MB

     Dynamical RAM for          <psi|beta>:       0.00 MB

     Dynamical RAM for                 psi:       0.62 MB

     Dynamical RAM for                hpsi:       0.62 MB

     Dynamical RAM for      wfcinit/wfcrot:       0.62 MB

     Estimated static dynamical RAM per process >      10.90 MB

     Estimated max dynamical RAM per process >      12.15 MB

     The potential is recalculated from file :
     sweeps/BCT1_7/BCT1_02.save/charge-density

     Starting wfcs are    4 randomized atomic wfcs +    2 random wfcs

     Band Structure Calculation
     Davidson diagonalization with overlap

     Computing kpt #:     1  of     6
     total cpu time spent up to now is        0.5 secs

     Computing kpt #:     2  of     6
     total cpu time spent up to now is        1.0 secs

     Computing kpt #:     3  of     6
     total cpu time spent up to now is        1.3 secs

     Computing kpt #:     4  of     6
     total cpu time spent up to now is        1.5 secs

     Computing kpt #:     5  of     6
     total cpu time spent up to now is        1.9 secs

     Computing kpt #:     6  of     6
     total cpu time spent up to now is        2.3 secs

     ethr =  2.50E-10,  avg # of iterations = 28.5

     total cpu time spent up to now is        2.3 secs

     End of band structure calculation

          k = 1.0000 0.0000 0.0000 (  3300 PWs)   bands (ev):

   -10.6367  -2.8152  -2.8152  -1.2097   5.1553   8.6457

          k = 0.5000 0.0000 0.7500 (  3380 PWs)   bands (ev):

   -10.3849  -3.4403  -1.8313  -1.7747   6.1112   8.3155

          k = 0.5000 0.5000 0.7500 (  3352 PWs)   bands (ev):

   -10.3679  -3.2444  -2.0258  -2.0258   7.1571   7.1571

          k = 0.5000 0.5000 0.0000 (  3358 PWs)   bands (ev):

   -10.9318  -3.3192  -1.5180  -1.0517   6.4493   6.5955

          k = 0.0000 0.0000 1.0833 (  3357 PWs)   bands (ev):

   -10.4224  -2.5587  -2.4132  -2.4132   6.1982   8.8884

          k = 1.0000 0.0000 0.4167 (  3357 PWs)   bands (ev):

   -10.4224  -2.5587  -2.4132  -2.4132   6.1982   8.8884

     Writing all to output data dir sweeps/BCT1_7/BCT1_02.save/ :
     XML data file, pseudopotentials, collected wavefunctions
 
     init_run     :      4.06s CPU      0.11s WALL (       1 calls)
     electrons    :    153.65s CPU      2.18s WALL (       1 calls)

     Called by init_run:
     wfcinit      :      0.04s CPU      0.00s WALL (       1 calls)
     wfcinit:atom :      0.12s CPU      0.00s WALL (       6 calls)
     wfcinit:wfcr :      8.33s CPU      0.12s WALL (       6 calls)
     potinit      :      1.24s CPU      0.02s WALL (       1 calls)
     hinit0       :      2.76s CPU      0.07s WALL (       1 calls)

     Called by electrons:
     c_bands      :    153.64s CPU      2.18s WALL (       1 calls)
     v_of_rho     :      1.11s CPU      0.02s WALL (       1 calls)
     v_h          :      0.11s CPU      0.00s WALL (       1 calls)
     v_xc         :      1.00s CPU      0.02s WALL (       1 calls)

     Called by c_bands:
     init_us_2    :      0.21s CPU      0.00s WALL (       6 calls)
     cegterg      :    144.68s CPU      2.05s WALL (      12 calls)

     Called by sum_band:

     Called by *egterg:
     cdiaghg      :      1.07s CPU      0.02s WALL (     177 calls)
     cegterg:over :      1.52s CPU      0.02s WALL (     171 calls)
     cegterg:upda :      2.55s CPU      0.04s WALL (     171 calls)
     cegterg:last :      1.40s CPU      0.02s WALL (      92 calls)
     h_psi        :    141.99s CPU      2.01s WALL (     189 calls)
     g_psi        :      1.54s CPU      0.02s WALL (     171 calls)

     Called by h_psi:
     h_psi:calbec :      1.15s CPU      0.02s WALL (     189 calls)
     vloc_psi     :    137.72s CPU      1.95s WALL (     189 calls)
     add_vuspsi   :      0.86s CPU      0.01s WALL (     189 calls)

     General routines
     calbec       :      0.95s CPU      0.01s WALL (     189 calls)
     fft          :      1.50s CPU      0.02s WALL (      10 calls)
     fftw         :    114.49s CPU      1.62s WALL (    1230 calls)
     davcio       :      0.08s CPU      0.00s WALL (      12 calls)
 
     Parallel routines
 
     PWSCF        :   2m39.41s CPU      2.33s WALL

 
   This run was terminated on:  11:43:26  17Jun2025            

=------------------------------------------------------------------------------=
   JOB DONE.
=------------------------------------------------------------------------------=
