
     Program PWSCF v.7.3.1 starts on 17Jun2025 at 11:42:10 

     This program is part of the open-source Quantum ESPRESSO suite
     for quantum simulation of materials; please cite
         "P. Giannozzi et al., J. Phys.:Condens. Matter 21 395502 (2009);
         "P. Giannozzi et al., J. Phys.:Condens. Matter 29 465901 (2017);
         "P. Giannozzi et al., J. Chem. Phys. 152 154105 (2020);
          URL http://www.quantum-espresso.org", 
     in publications or presentations arising from this work. More details at
     http://www.quantum-espresso.org/quote

     Parallel version (MPI & OpenMP), running on      96 processor cores
     Number of MPI processes:                 1
     Threads/MPI process:                    96

     MPI processes distributed on     1 nodes
     122368 MiB available memory on the printing compute node when the environment starts
 
     Waiting for input...
     Reading input from standard input
Warning: card &IONS ignored
Warning: card     ION_DYNAMICS = 'BFGS' ignored
Warning: card /&END ignored

     Current dimensions of program PWSCF are:
     Max number of different atomic species (ntypx) = 10
     Max number of k-points (npk) =  40000
     Max angular momentum in pseudopotentials (lmaxx) =  4

     Atomic positions and unit cell read from directory:
     sweeps/RHL1_5/RHL1_03.save/
 
 
     Subspace diagonalization in iterative solution of the eigenvalue problem:
     a serial algorithm will be used

 
     G-vector sticks info
     --------------------
     sticks:   dense  smooth     PW     G-vecs:    dense   smooth      PW
     Sum        2081    2081    589                66419    66419    9843
 
     Using Slab Decomposition
 


     bravais-lattice index     =            5
     lattice parameter (alat)  =       9.4248  a.u.
     unit-cell volume          =     686.6553 (a.u.)^3
     number of atoms/cell      =            1
     number of atomic types    =            1
     number of electrons       =         4.00
     number of Kohn-Sham states=            6
     kinetic-energy cutoff     =      80.0000  Ry
     charge density cutoff     =     320.0000  Ry
     Exchange-correlation= PBE
                           (   1   4   3   4   0   0   0)

     celldm(1)=   9.424778  celldm(2)=   0.000000  celldm(3)=   0.000000
     celldm(4)=   0.382683  celldm(5)=   0.000000  celldm(6)=   0.000000

     crystal axes: (cart. coord. in units of alat)
               a(1) = (   0.555570  -0.320759   0.767109 )  
               a(2) = (   0.000000   0.641517   0.767109 )  
               a(3) = (  -0.555570  -0.320759   0.767109 )  

     reciprocal axes: (cart. coord. in units 2 pi/alat)
               b(1) = (  0.899976 -0.519602  0.434532 )  
               b(2) = (  0.000000  1.039203  0.434532 )  
               b(3) = ( -0.899976 -0.519602  0.434532 )  


     PseudoPot. # 1 for C  read from file:
     ./C_ONCV_PBE_sr.upf
     MD5 check sum: b68b6074392897e22e8b22f1bd7aa93e
     Pseudo is Norm-conserving, Zval =  4.0
     Generated using ONCVPSP code by D. R. Hamann
     Using radial grid of 1248 points,  4 beta functions with: 
                l(1) =   0
                l(2) =   0
                l(3) =   1
                l(4) =   1

     atomic species   valence    mass     pseudopotential
     C                 4.00    10.81100     C ( 1.00)

     12 Sym. Ops., with inversion, found


                                    s                        frac. trans.

      isym =  1     identity                                     

 cryst.   s( 1) = (     1          0          0      )
                  (     0          1          0      )
                  (     0          0          1      )

 cart.    s( 1) = (  1.0000000  0.0000000  0.0000000 )
                  (  0.0000000  1.0000000  0.0000000 )
                  (  0.0000000  0.0000000  1.0000000 )


      isym =  2     180 deg rotation - cart. axis [1,0,0]        

 cryst.   s( 2) = (     0          0         -1      )
                  (     0         -1          0      )
                  (    -1          0          0      )

 cart.    s( 2) = (  1.0000000  0.0000000  0.0000000 )
                  (  0.0000000 -1.0000000  0.0000000 )
                  (  0.0000000  0.0000000 -1.0000000 )


      isym =  3     120 deg rotation - cryst. axis [0,0,1]       

 cryst.   s( 3) = (     0          1          0      )
                  (     0          0          1      )
                  (     1          0          0      )

 cart.    s( 3) = ( -0.5000000 -0.8660254 -0.0000000 )
                  (  0.8660254 -0.5000000 -0.0000000 )
                  (  0.0000000  0.0000000  1.0000000 )


      isym =  4     120 deg rotation - cryst. axis [0,0,-1]      

 cryst.   s( 4) = (     0          0          1      )
                  (     1          0          0      )
                  (     0          1          0      )

 cart.    s( 4) = ( -0.5000000  0.8660254  0.0000000 )
                  ( -0.8660254 -0.5000000 -0.0000000 )
                  (  0.0000000  0.0000000  1.0000000 )


      isym =  5     180 deg rotation - cryst. axis [0,1,0]       

 cryst.   s( 5) = (     0         -1          0      )
                  (    -1          0          0      )
                  (     0          0         -1      )

 cart.    s( 5) = ( -0.5000000 -0.8660254 -0.0000000 )
                  ( -0.8660254  0.5000000  0.0000000 )
                  (  0.0000000  0.0000000 -1.0000000 )


      isym =  6     180 deg rotation - cryst. axis [1,1,0]       

 cryst.   s( 6) = (    -1          0          0      )
                  (     0          0         -1      )
                  (     0         -1          0      )

 cart.    s( 6) = ( -0.5000000  0.8660254  0.0000000 )
                  (  0.8660254  0.5000000  0.0000000 )
                  (  0.0000000  0.0000000 -1.0000000 )


      isym =  7     inversion                                    

 cryst.   s( 7) = (    -1          0          0      )
                  (     0         -1          0      )
                  (     0          0         -1      )

 cart.    s( 7) = ( -1.0000000  0.0000000  0.0000000 )
                  (  0.0000000 -1.0000000  0.0000000 )
                  (  0.0000000  0.0000000 -1.0000000 )


      isym =  8     inv. 180 deg rotation - cart. axis [1,0,0]   

 cryst.   s( 8) = (     0          0          1      )
                  (     0          1          0      )
                  (     1          0          0      )

 cart.    s( 8) = ( -1.0000000  0.0000000  0.0000000 )
                  (  0.0000000  1.0000000  0.0000000 )
                  (  0.0000000  0.0000000  1.0000000 )


      isym =  9     inv. 120 deg rotation - cryst. axis [0,0,1]  

 cryst.   s( 9) = (     0         -1          0      )
                  (     0          0         -1      )
                  (    -1          0          0      )

 cart.    s( 9) = (  0.5000000  0.8660254  0.0000000 )
                  ( -0.8660254  0.5000000  0.0000000 )
                  (  0.0000000  0.0000000 -1.0000000 )


      isym = 10     inv. 120 deg rotation - cryst. axis [0,0,-1] 

 cryst.   s(10) = (     0          0         -1      )
                  (    -1          0          0      )
                  (     0         -1          0      )

 cart.    s(10) = (  0.5000000 -0.8660254 -0.0000000 )
                  (  0.8660254  0.5000000  0.0000000 )
                  (  0.0000000  0.0000000 -1.0000000 )


      isym = 11     inv. 180 deg rotation - cryst. axis [0,1,0]  

 cryst.   s(11) = (     0          1          0      )
                  (     1          0          0      )
                  (     0          0          1      )

 cart.    s(11) = (  0.5000000  0.8660254  0.0000000 )
                  (  0.8660254 -0.5000000 -0.0000000 )
                  (  0.0000000  0.0000000  1.0000000 )


      isym = 12     inv. 180 deg rotation - cryst. axis [1,1,0]  

 cryst.   s(12) = (     1          0          0      )
                  (     0          0          1      )
                  (     0          1          0      )

 cart.    s(12) = (  0.5000000 -0.8660254 -0.0000000 )
                  ( -0.8660254 -0.5000000 -0.0000000 )
                  (  0.0000000  0.0000000  1.0000000 )


     point group D_3d (-3m) 
     there are  6 classes
     the character table:

       E     2C3   3C2'  i     2S6   3s_d 
A_1g   1.00  1.00  1.00  1.00  1.00  1.00
A_2g   1.00  1.00 -1.00  1.00  1.00 -1.00
E_g    2.00 -1.00  0.00  2.00 -1.00  0.00
A_1u   1.00  1.00  1.00 -1.00 -1.00 -1.00
A_2u   1.00  1.00 -1.00 -1.00 -1.00  1.00
E_u    2.00 -1.00  0.00 -2.00  1.00  0.00

     the symmetry operations in each class and the name of the first element:

     E        1
          identity                                               
     2C3      3    4
          120 deg rotation - cryst. axis [0,0,1]                 
     3C2'     2    5    6
          180 deg rotation - cart. axis [1,0,0]                  
     i        7
          inversion                                              
     2S6      9   10
          inv. 120 deg rotation - cryst. axis [0,0,1]            
     3s_d     8   11   12
          inv. 180 deg rotation - cart. axis [1,0,0]             

   Cartesian axes

     site n.     atom                  positions (alat units)
         1        C      tau(   1) = (   0.0000000   0.0000000   0.0000000  )

   Crystallographic axes

     site n.     atom                  positions (cryst. coord.)
         1        C      tau(   1) = (  0.0000000  0.0000000  0.0000000  )

     number of k points=    11  Gaussian smearing, width (Ry)=  0.0050
                       cart. coord. in units 2pi/alat
        k(    1) = (   0.3901806  -0.0000000   0.6517982), wk =   0.1818182
        k(    2) = (   0.7048859   0.1816952   0.2172661), wk =   0.1818182
        k(    3) = (   0.4499881   0.2598008   0.4345321), wk =   0.1818182
        k(    4) = (   0.4499881  -0.2598008   0.2172661), wk =   0.1818182
        k(    5) = (   0.4499881   0.2598008  -0.2172661), wk =   0.1818182
        k(    6) = (   0.2926355  -0.1689532   0.6517982), wk =   0.1818182
        k(    7) = (   0.2926355   0.1689532   0.6517982), wk =   0.1818182
        k(    8) = (   0.6073407   0.3506483   0.2172661), wk =   0.1818182
        k(    9) = (   0.5475333   0.0908476   0.4345321), wk =   0.1818182
        k(   10) = (   0.7048859   0.0000000  -0.0000000), wk =   0.1818182
        k(   11) = (   0.0000000   0.0000000   0.6517982), wk =   0.1818182

                       cryst. coord.
        k(    1) = (   0.7167728   0.5000000   0.2832272), wk =   0.1818182
        k(    2) = (   0.5000000   0.2832272  -0.2832272), wk =   0.1818182
        k(    3) = (   0.5000000   0.5000000   0.0000000), wk =   0.1818182
        k(    4) = (   0.5000000   0.0000000  -0.0000000), wk =   0.1818182
        k(    5) = (   0.0000000  -0.0000000  -0.5000000), wk =   0.1818182
        k(    6) = (   0.7167728   0.3916136   0.3916136), wk =   0.1818182
        k(    7) = (   0.6083864   0.6083864   0.2832272), wk =   0.1818182
        k(    8) = (   0.3916136   0.3916136  -0.2832272), wk =   0.1818182
        k(    9) = (   0.6083864   0.3916136  -0.0000000), wk =   0.1818182
        k(   10) = (   0.3916136  -0.0000000  -0.3916136), wk =   0.1818182
        k(   11) = (   0.5000000   0.5000000   0.5000000), wk =   0.1818182

     Dense  grid:    66419 G-vectors     FFT dimensions: (  54,  54,  54)

     Dynamical RAM for                 wfc:       0.76 MB

     Dynamical RAM for     wfc (w. buffer):       0.76 MB

     Dynamical RAM for           str. fact:       1.01 MB

     Dynamical RAM for           local pot:       0.00 MB

     Dynamical RAM for          nlocal pot:       1.01 MB

     Dynamical RAM for                qrad:       0.41 MB

     Dynamical RAM for          rho,v,vnew:       6.64 MB

     Dynamical RAM for           G-vectors:       4.31 MB

     Dynamical RAM for          h,s,v(r/c):       0.01 MB

     Dynamical RAM for          <psi|beta>:       0.00 MB

     Dynamical RAM for                 psi:       1.52 MB

     Dynamical RAM for                hpsi:       1.52 MB

     Dynamical RAM for      wfcinit/wfcrot:       1.52 MB

     Estimated static dynamical RAM per process >      22.18 MB

     Estimated max dynamical RAM per process >      25.23 MB

     The potential is recalculated from file :
     sweeps/RHL1_5/RHL1_03.save/charge-density

     Starting wfcs are    4 randomized atomic wfcs +    2 random wfcs

     Band Structure Calculation
     Davidson diagonalization with overlap

     Computing kpt #:     1  of    11
     total cpu time spent up to now is        1.0 secs

     Computing kpt #:     2  of    11
     total cpu time spent up to now is        2.1 secs

     Computing kpt #:     3  of    11
     total cpu time spent up to now is        2.8 secs

     Computing kpt #:     4  of    11
     total cpu time spent up to now is        3.2 secs

     Computing kpt #:     5  of    11
     total cpu time spent up to now is        3.6 secs

     Computing kpt #:     6  of    11
     total cpu time spent up to now is        4.5 secs

     Computing kpt #:     7  of    11
     total cpu time spent up to now is        5.4 secs

     Computing kpt #:     8  of    11
     total cpu time spent up to now is        6.2 secs

     Computing kpt #:     9  of    11
     total cpu time spent up to now is        7.2 secs

     Computing kpt #:    10  of    11
     total cpu time spent up to now is        8.1 secs

     Computing kpt #:    11  of    11
     total cpu time spent up to now is        8.7 secs

     ethr =  2.50E-10,  avg # of iterations = 43.3

     total cpu time spent up to now is        8.7 secs

     End of band structure calculation

          k = 0.3902-0.0000 0.6518 (  8294 PWs)   bands (ev):

   -12.2783  -4.0014  -3.8809  -3.8338   2.9217   3.2452

          k = 0.7049 0.1817 0.2173 (  8294 PWs)   bands (ev):

   -12.2783  -4.0014  -3.8809  -3.8338   2.9217   3.2452

          k = 0.4500 0.2598 0.4345 (  8280 PWs)   bands (ev):

   -12.2810  -4.0638  -3.8605  -3.7624   2.4779   3.0608

          k = 0.4500-0.2598 0.2173 (  8326 PWs)   bands (ev):

   -12.3017  -4.0811  -3.7281  -3.7197   2.0730   2.1906

          k = 0.4500 0.2598-0.2173 (  8326 PWs)   bands (ev):

   -12.3017  -4.0811  -3.7281  -3.7197   2.0730   2.1906

          k = 0.2926-0.1690 0.6518 (  8268 PWs)   bands (ev):

   -12.2767  -4.0214  -3.8780  -3.8192   2.9134   3.1618

          k = 0.2926 0.1690 0.6518 (  8268 PWs)   bands (ev):

   -12.2767  -4.0214  -3.8780  -3.8192   2.9134   3.1618

          k = 0.6073 0.3506 0.2173 (  8268 PWs)   bands (ev):

   -12.2767  -4.0214  -3.8780  -3.8192   2.9134   3.1618

          k = 0.5475 0.0908 0.4345 (  8285 PWs)   bands (ev):

   -12.2844  -4.0194  -3.9024  -3.7520   2.6039   3.1572

          k = 0.7049 0.0000-0.0000 (  8285 PWs)   bands (ev):

   -12.2844  -4.0194  -3.9024  -3.7520   2.6039   3.1572

          k = 0.0000 0.0000 0.6518 (  8330 PWs)   bands (ev):

   -12.2736  -4.1169  -3.7893  -3.7893   2.4369   2.8527

     Writing all to output data dir sweeps/RHL1_5/RHL1_03.save/ :
     XML data file, pseudopotentials, collected wavefunctions
 
     init_run     :      4.65s CPU      0.15s WALL (       1 calls)
     electrons    :    672.44s CPU      8.49s WALL (       1 calls)

     Called by init_run:
     wfcinit      :      0.05s CPU      0.00s WALL (       1 calls)
     wfcinit:atom :      0.42s CPU      0.01s WALL (      11 calls)
     wfcinit:wfcr :     26.00s CPU      0.34s WALL (      11 calls)
     potinit      :      2.08s CPU      0.04s WALL (       1 calls)
     hinit0       :      2.50s CPU      0.08s WALL (       1 calls)

     Called by electrons:
     c_bands      :    672.42s CPU      8.49s WALL (       1 calls)
     v_of_rho     :      1.84s CPU      0.04s WALL (       1 calls)
     v_h          :      0.15s CPU      0.00s WALL (       1 calls)
     v_xc         :      1.68s CPU      0.03s WALL (       1 calls)

     Called by c_bands:
     init_us_2    :      0.85s CPU      0.01s WALL (      11 calls)
     cegterg      :    643.74s CPU      8.12s WALL (      30 calls)

     Called by sum_band:

     Called by *egterg:
     cdiaghg      :      3.55s CPU      0.04s WALL (     487 calls)
     cegterg:over :     12.53s CPU      0.16s WALL (     476 calls)
     cegterg:upda :     12.97s CPU      0.17s WALL (     476 calls)
     cegterg:last :     10.93s CPU      0.14s WALL (     240 calls)
     h_psi        :    616.37s CPU      7.76s WALL (     517 calls)
     g_psi        :      2.88s CPU      0.05s WALL (     476 calls)

     Called by h_psi:
     h_psi:calbec :      8.44s CPU      0.10s WALL (     517 calls)
     vloc_psi     :    594.68s CPU      7.50s WALL (     517 calls)
     add_vuspsi   :      5.99s CPU      0.07s WALL (     517 calls)

     General routines
     calbec       :      7.56s CPU      0.09s WALL (     517 calls)
     fft          :      1.56s CPU      0.03s WALL (      10 calls)
     fftw         :    533.87s CPU      6.63s WALL (    3098 calls)
     davcio       :      0.43s CPU      0.01s WALL (      22 calls)
 
     Parallel routines
 
     PWSCF        :  11m23.18s CPU      8.73s WALL

 
   This run was terminated on:  11:42:19  17Jun2025            

=------------------------------------------------------------------------------=
   JOB DONE.
=------------------------------------------------------------------------------=
