
     Program PWSCF v.7.3.1 starts on 17Jun2025 at 11:44:27 

     This program is part of the open-source Quantum ESPRESSO suite
     for quantum simulation of materials; please cite
         "P. Giannozzi et al., J. Phys.:Condens. Matter 21 395502 (2009);
         "P. Giannozzi et al., J. Phys.:Condens. Matter 29 465901 (2017);
         "P. Giannozzi et al., J. Chem. Phys. 152 154105 (2020);
          URL http://www.quantum-espresso.org", 
     in publications or presentations arising from this work. More details at
     http://www.quantum-espresso.org/quote

     Parallel version (MPI & OpenMP), running on      96 processor cores
     Number of MPI processes:                 1
     Threads/MPI process:                    96

     MPI processes distributed on     1 nodes
     122231 MiB available memory on the printing compute node when the environment starts
 
     Waiting for input...
     Reading input from standard input
Warning: card &IONS ignored
Warning: card     ION_DYNAMICS = 'BFGS' ignored
Warning: card /&END ignored

     Current dimensions of program PWSCF are:
     Max number of different atomic species (ntypx) = 10
     Max number of k-points (npk) =  40000
     Max angular momentum in pseudopotentials (lmaxx) =  4

     Atomic positions and unit cell read from directory:
     sweeps/ORC_8/ORC_02.save/
 
 
     Subspace diagonalization in iterative solution of the eigenvalue problem:
     a serial algorithm will be used

 
     G-vector sticks info
     --------------------
     sticks:   dense  smooth     PW     G-vecs:    dense   smooth      PW
     Sum        1499    1499    435                71805    71805   11069
 
     Using Slab Decomposition
 


     bravais-lattice index     =            8
     lattice parameter (alat)  =       6.2832  a.u.
     unit-cell volume          =     744.1506 (a.u.)^3
     number of atoms/cell      =            1
     number of atomic types    =            1
     number of electrons       =         4.00
     number of Kohn-Sham states=            6
     kinetic-energy cutoff     =      80.0000  Ry
     charge density cutoff     =     320.0000  Ry
     Exchange-correlation= PBE
                           (   1   4   3   4   0   0   0)

     celldm(1)=   6.283185  celldm(2)=   1.500000  celldm(3)=   2.000000
     celldm(4)=   0.000000  celldm(5)=   0.000000  celldm(6)=   0.000000

     crystal axes: (cart. coord. in units of alat)
               a(1) = (   1.000000   0.000000   0.000000 )  
               a(2) = (   0.000000   1.500000   0.000000 )  
               a(3) = (   0.000000   0.000000   2.000000 )  

     reciprocal axes: (cart. coord. in units 2 pi/alat)
               b(1) = (  1.000000  0.000000  0.000000 )  
               b(2) = (  0.000000  0.666667  0.000000 )  
               b(3) = (  0.000000  0.000000  0.500000 )  


     PseudoPot. # 1 for C  read from file:
     ./C_ONCV_PBE_sr.upf
     MD5 check sum: b68b6074392897e22e8b22f1bd7aa93e
     Pseudo is Norm-conserving, Zval =  4.0
     Generated using ONCVPSP code by D. R. Hamann
     Using radial grid of 1248 points,  4 beta functions with: 
                l(1) =   0
                l(2) =   0
                l(3) =   1
                l(4) =   1

     atomic species   valence    mass     pseudopotential
     C                 4.00    10.81100     C ( 1.00)

      8 Sym. Ops., with inversion, found


                                    s                        frac. trans.

      isym =  1     identity                                     

 cryst.   s( 1) = (     1          0          0      )
                  (     0          1          0      )
                  (     0          0          1      )

 cart.    s( 1) = (  1.0000000  0.0000000  0.0000000 )
                  (  0.0000000  1.0000000  0.0000000 )
                  (  0.0000000  0.0000000  1.0000000 )


      isym =  2     180 deg rotation - cart. axis [0,0,1]        

 cryst.   s( 2) = (    -1          0          0      )
                  (     0         -1          0      )
                  (     0          0          1      )

 cart.    s( 2) = ( -1.0000000  0.0000000  0.0000000 )
                  (  0.0000000 -1.0000000  0.0000000 )
                  (  0.0000000  0.0000000  1.0000000 )


      isym =  3     180 deg rotation - cart. axis [0,1,0]        

 cryst.   s( 3) = (    -1          0          0      )
                  (     0          1          0      )
                  (     0          0         -1      )

 cart.    s( 3) = ( -1.0000000  0.0000000  0.0000000 )
                  (  0.0000000  1.0000000  0.0000000 )
                  (  0.0000000  0.0000000 -1.0000000 )


      isym =  4     180 deg rotation - cart. axis [1,0,0]        

 cryst.   s( 4) = (     1          0          0      )
                  (     0         -1          0      )
                  (     0          0         -1      )

 cart.    s( 4) = (  1.0000000  0.0000000  0.0000000 )
                  (  0.0000000 -1.0000000  0.0000000 )
                  (  0.0000000  0.0000000 -1.0000000 )


      isym =  5     inversion                                    

 cryst.   s( 5) = (    -1          0          0      )
                  (     0         -1          0      )
                  (     0          0         -1      )

 cart.    s( 5) = ( -1.0000000  0.0000000  0.0000000 )
                  (  0.0000000 -1.0000000  0.0000000 )
                  (  0.0000000  0.0000000 -1.0000000 )


      isym =  6     inv. 180 deg rotation - cart. axis [0,0,1]   

 cryst.   s( 6) = (     1          0          0      )
                  (     0          1          0      )
                  (     0          0         -1      )

 cart.    s( 6) = (  1.0000000  0.0000000  0.0000000 )
                  (  0.0000000  1.0000000  0.0000000 )
                  (  0.0000000  0.0000000 -1.0000000 )


      isym =  7     inv. 180 deg rotation - cart. axis [0,1,0]   

 cryst.   s( 7) = (     1          0          0      )
                  (     0         -1          0      )
                  (     0          0          1      )

 cart.    s( 7) = (  1.0000000  0.0000000  0.0000000 )
                  (  0.0000000 -1.0000000  0.0000000 )
                  (  0.0000000  0.0000000  1.0000000 )


      isym =  8     inv. 180 deg rotation - cart. axis [1,0,0]   

 cryst.   s( 8) = (    -1          0          0      )
                  (     0          1          0      )
                  (     0          0          1      )

 cart.    s( 8) = ( -1.0000000  0.0000000  0.0000000 )
                  (  0.0000000  1.0000000  0.0000000 )
                  (  0.0000000  0.0000000  1.0000000 )


     point group D_2h (mmm) 
     there are  8 classes
     the character table:

       E     C2    C2'   C2''  i     s_v   s_v'  s_v''
A_g    1.00  1.00  1.00  1.00  1.00  1.00  1.00  1.00
B_1g   1.00  1.00 -1.00 -1.00  1.00  1.00 -1.00 -1.00
B_2g   1.00 -1.00  1.00 -1.00  1.00 -1.00  1.00 -1.00
B_3g   1.00 -1.00 -1.00  1.00  1.00 -1.00 -1.00  1.00
A_u    1.00  1.00  1.00  1.00 -1.00 -1.00 -1.00 -1.00
B_1u   1.00  1.00 -1.00 -1.00 -1.00 -1.00  1.00  1.00
B_2u   1.00 -1.00  1.00 -1.00 -1.00  1.00 -1.00  1.00
B_3u   1.00 -1.00 -1.00  1.00 -1.00  1.00  1.00 -1.00

     the symmetry operations in each class and the name of the first element:

     E        1
          identity                                               
     C2       2
          180 deg rotation - cart. axis [0,0,1]                  
     C2'      4
          180 deg rotation - cart. axis [1,0,0]                  
     C2''     3
          180 deg rotation - cart. axis [0,1,0]                  
     i        5
          inversion                                              
     s_v      6
          inv. 180 deg rotation - cart. axis [0,0,1]             
     s_v'     8
          inv. 180 deg rotation - cart. axis [1,0,0]             
     s_v''    7
          inv. 180 deg rotation - cart. axis [0,1,0]             

   Cartesian axes

     site n.     atom                  positions (alat units)
         1        C      tau(   1) = (   0.0000000   0.0000000   0.0000000  )

   Crystallographic axes

     site n.     atom                  positions (cryst. coord.)
         1        C      tau(   1) = (  0.0000000  0.0000000  0.0000000  )

     number of k points=     7  Gaussian smearing, width (Ry)=  0.0050
                       cart. coord. in units 2pi/alat
        k(    1) = (   0.5000000   0.3333333   0.2500000), wk =   0.2857143
        k(    2) = (   0.5000000   0.3333333   0.0000000), wk =   0.2857143
        k(    3) = (   0.0000000   0.3333333   0.2500000), wk =   0.2857143
        k(    4) = (   0.5000000   0.0000000   0.2500000), wk =   0.2857143
        k(    5) = (   0.5000000   0.0000000   0.0000000), wk =   0.2857143
        k(    6) = (   0.0000000   0.3333333   0.0000000), wk =   0.2857143
        k(    7) = (   0.0000000   0.0000000   0.2500000), wk =   0.2857143

                       cryst. coord.
        k(    1) = (   0.5000000   0.5000000   0.5000000), wk =   0.2857143
        k(    2) = (   0.5000000   0.5000000   0.0000000), wk =   0.2857143
        k(    3) = (   0.0000000   0.5000000   0.5000000), wk =   0.2857143
        k(    4) = (   0.5000000   0.0000000   0.5000000), wk =   0.2857143
        k(    5) = (   0.5000000   0.0000000   0.0000000), wk =   0.2857143
        k(    6) = (   0.0000000   0.5000000   0.0000000), wk =   0.2857143
        k(    7) = (   0.0000000   0.0000000   0.5000000), wk =   0.2857143

     Dense  grid:    71805 G-vectors     FFT dimensions: (  36,  54,  72)

     Dynamical RAM for                 wfc:       0.82 MB

     Dynamical RAM for     wfc (w. buffer):       0.82 MB

     Dynamical RAM for           str. fact:       1.10 MB

     Dynamical RAM for           local pot:       0.00 MB

     Dynamical RAM for          nlocal pot:       1.10 MB

     Dynamical RAM for                qrad:       0.41 MB

     Dynamical RAM for          rho,v,vnew:       6.49 MB

     Dynamical RAM for           G-vectors:       4.66 MB

     Dynamical RAM for          h,s,v(r/c):       0.01 MB

     Dynamical RAM for          <psi|beta>:       0.00 MB

     Dynamical RAM for                 psi:       1.65 MB

     Dynamical RAM for                hpsi:       1.65 MB

     Dynamical RAM for      wfcinit/wfcrot:       1.65 MB

     Estimated static dynamical RAM per process >      22.10 MB

     Estimated max dynamical RAM per process >      25.40 MB

     The potential is recalculated from file :
     sweeps/ORC_8/ORC_02.save/charge-density

     Starting wfcs are    4 randomized atomic wfcs +    2 random wfcs

     Band Structure Calculation
     Davidson diagonalization with overlap

     Computing kpt #:     1  of     7
     total cpu time spent up to now is        2.3 secs

     Computing kpt #:     2  of     7
     total cpu time spent up to now is        3.5 secs

     Computing kpt #:     3  of     7
     c_bands:  1 eigenvalues not converged
     total cpu time spent up to now is        4.5 secs

     Computing kpt #:     4  of     7
     total cpu time spent up to now is        5.2 secs

     Computing kpt #:     5  of     7
     total cpu time spent up to now is        5.7 secs

     Computing kpt #:     6  of     7
     total cpu time spent up to now is        6.0 secs

     Computing kpt #:     7  of     7
     total cpu time spent up to now is        6.3 secs

     ethr =  2.50E-10,  avg # of iterations = 49.1

     total cpu time spent up to now is        6.3 secs

     End of band structure calculation

          k = 0.5000 0.3333 0.2500 (  9040 PWs)   bands (ev):

   -12.9126  -5.6904  -4.5440  -4.3356   3.7091   4.3848

          k = 0.5000 0.3333 0.0000 (  8976 PWs)   bands (ev):

   -12.9130  -5.6926  -4.5456  -4.3248   3.4342   4.8174

          k = 0.0000 0.3333 0.2500 (  8952 PWs)   bands (ev):

   -13.4462  -5.0592  -4.7973  -3.6325   1.9059   2.4397

          k = 0.5000 0.0000 0.2500 (  9016 PWs)   bands (ev):

   -12.9269  -5.7304  -4.3919  -4.3576   3.3616   4.2264

          k = 0.5000 0.0000 0.0000 (  9014 PWs)   bands (ev):

   -12.9273  -5.7333  -4.3925  -4.3444   3.3654   3.4598

          k = 0.0000 0.3333 0.0000 (  8946 PWs)   bands (ev):

   -13.4470  -5.0654  -4.7675  -3.6326   1.6214   1.7358

          k = 0.0000 0.0000 0.2500 (  8948 PWs)   bands (ev):

   -13.4676  -4.8490  -4.7855  -3.6383   1.0057   1.0416

     Writing all to output data dir sweeps/ORC_8/ORC_02.save/ :
     XML data file, pseudopotentials, collected wavefunctions
 
     init_run     :      4.51s CPU      0.15s WALL (       1 calls)
     electrons    :    459.88s CPU      6.16s WALL (       1 calls)

     Called by init_run:
     wfcinit      :      0.06s CPU      0.00s WALL (       1 calls)
     wfcinit:atom :      0.61s CPU      0.01s WALL (       7 calls)
     wfcinit:wfcr :     18.38s CPU      0.27s WALL (       7 calls)
     potinit      :      1.82s CPU      0.04s WALL (       1 calls)
     hinit0       :      2.60s CPU      0.08s WALL (       1 calls)

     Called by electrons:
     c_bands      :    459.87s CPU      6.16s WALL (       1 calls)
     v_of_rho     :      1.41s CPU      0.03s WALL (       1 calls)
     v_h          :      0.11s CPU      0.00s WALL (       1 calls)
     v_xc         :      1.30s CPU      0.03s WALL (       1 calls)

     Called by c_bands:
     init_us_2    :      0.92s CPU      0.02s WALL (       7 calls)
     cegterg      :    438.05s CPU      5.84s WALL (      20 calls)

     Called by sum_band:

     Called by *egterg:
     cdiaghg      :      2.67s CPU      0.03s WALL (     351 calls)
     cegterg:over :      8.57s CPU      0.11s WALL (     344 calls)
     cegterg:upda :     22.53s CPU      0.34s WALL (     344 calls)
     cegterg:last :      7.74s CPU      0.09s WALL (     151 calls)
     h_psi        :    404.91s CPU      5.40s WALL (     371 calls)
     g_psi        :      3.24s CPU      0.05s WALL (     344 calls)

     Called by h_psi:
     h_psi:calbec :      5.95s CPU      0.07s WALL (     371 calls)
     vloc_psi     :    389.76s CPU      5.22s WALL (     371 calls)
     add_vuspsi   :      4.04s CPU      0.05s WALL (     371 calls)

     General routines
     calbec       :      5.19s CPU      0.06s WALL (     371 calls)
     fft          :      1.39s CPU      0.03s WALL (      10 calls)
     fftw         :    250.47s CPU      2.99s WALL (    1996 calls)
     davcio       :      0.26s CPU      0.00s WALL (      14 calls)
 
     Parallel routines
 
     PWSCF        :   7m48.78s CPU      6.39s WALL

 
   This run was terminated on:  11:44:34  17Jun2025            

=------------------------------------------------------------------------------=
   JOB DONE.
=------------------------------------------------------------------------------=
