
     Program PWSCF v.7.3.1 starts on 17Jun2025 at 11:44:23 

     This program is part of the open-source Quantum ESPRESSO suite
     for quantum simulation of materials; please cite
         "P. Giannozzi et al., J. Phys.:Condens. Matter 21 395502 (2009);
         "P. Giannozzi et al., J. Phys.:Condens. Matter 29 465901 (2017);
         "P. Giannozzi et al., J. Chem. Phys. 152 154105 (2020);
          URL http://www.quantum-espresso.org", 
     in publications or presentations arising from this work. More details at
     http://www.quantum-espresso.org/quote

     Parallel version (MPI & OpenMP), running on      96 processor cores
     Number of MPI processes:                 1
     Threads/MPI process:                    96

     MPI processes distributed on     1 nodes
     122229 MiB available memory on the printing compute node when the environment starts
 
     Waiting for input...
     Reading input from standard input
Warning: card &IONS ignored
Warning: card     ION_DYNAMICS = 'BFGS' ignored
Warning: card /&END ignored

     Current dimensions of program PWSCF are:
     Max number of different atomic species (ntypx) = 10
     Max number of k-points (npk) =  40000
     Max angular momentum in pseudopotentials (lmaxx) =  4

     Atomic positions and unit cell read from directory:
     sweeps/ORC_8/ORC_01.save/
 
 
     Subspace diagonalization in iterative solution of the eigenvalue problem:
     a serial algorithm will be used

 
     G-vector sticks info
     --------------------
     sticks:   dense  smooth     PW     G-vecs:    dense   smooth      PW
     Sum         379     379    125                 8937     8937    1681
 
     Using Slab Decomposition
 


     bravais-lattice index     =            8
     lattice parameter (alat)  =       3.1416  a.u.
     unit-cell volume          =      93.0188 (a.u.)^3
     number of atoms/cell      =            1
     number of atomic types    =            1
     number of electrons       =         4.00
     number of Kohn-Sham states=            6
     kinetic-energy cutoff     =      80.0000  Ry
     charge density cutoff     =     320.0000  Ry
     Exchange-correlation= PBE
                           (   1   4   3   4   0   0   0)

     celldm(1)=   3.141593  celldm(2)=   1.500000  celldm(3)=   2.000000
     celldm(4)=   0.000000  celldm(5)=   0.000000  celldm(6)=   0.000000

     crystal axes: (cart. coord. in units of alat)
               a(1) = (   1.000000   0.000000   0.000000 )  
               a(2) = (   0.000000   1.500000   0.000000 )  
               a(3) = (   0.000000   0.000000   2.000000 )  

     reciprocal axes: (cart. coord. in units 2 pi/alat)
               b(1) = (  1.000000  0.000000  0.000000 )  
               b(2) = (  0.000000  0.666667  0.000000 )  
               b(3) = (  0.000000  0.000000  0.500000 )  


     PseudoPot. # 1 for C  read from file:
     ./C_ONCV_PBE_sr.upf
     MD5 check sum: b68b6074392897e22e8b22f1bd7aa93e
     Pseudo is Norm-conserving, Zval =  4.0
     Generated using ONCVPSP code by D. R. Hamann
     Using radial grid of 1248 points,  4 beta functions with: 
                l(1) =   0
                l(2) =   0
                l(3) =   1
                l(4) =   1

     atomic species   valence    mass     pseudopotential
     C                 4.00    10.81100     C ( 1.00)

      8 Sym. Ops., with inversion, found


                                    s                        frac. trans.

      isym =  1     identity                                     

 cryst.   s( 1) = (     1          0          0      )
                  (     0          1          0      )
                  (     0          0          1      )

 cart.    s( 1) = (  1.0000000  0.0000000  0.0000000 )
                  (  0.0000000  1.0000000  0.0000000 )
                  (  0.0000000  0.0000000  1.0000000 )


      isym =  2     180 deg rotation - cart. axis [0,0,1]        

 cryst.   s( 2) = (    -1          0          0      )
                  (     0         -1          0      )
                  (     0          0          1      )

 cart.    s( 2) = ( -1.0000000  0.0000000  0.0000000 )
                  (  0.0000000 -1.0000000  0.0000000 )
                  (  0.0000000  0.0000000  1.0000000 )


      isym =  3     180 deg rotation - cart. axis [0,1,0]        

 cryst.   s( 3) = (    -1          0          0      )
                  (     0          1          0      )
                  (     0          0         -1      )

 cart.    s( 3) = ( -1.0000000  0.0000000  0.0000000 )
                  (  0.0000000  1.0000000  0.0000000 )
                  (  0.0000000  0.0000000 -1.0000000 )


      isym =  4     180 deg rotation - cart. axis [1,0,0]        

 cryst.   s( 4) = (     1          0          0      )
                  (     0         -1          0      )
                  (     0          0         -1      )

 cart.    s( 4) = (  1.0000000  0.0000000  0.0000000 )
                  (  0.0000000 -1.0000000  0.0000000 )
                  (  0.0000000  0.0000000 -1.0000000 )


      isym =  5     inversion                                    

 cryst.   s( 5) = (    -1          0          0      )
                  (     0         -1          0      )
                  (     0          0         -1      )

 cart.    s( 5) = ( -1.0000000  0.0000000  0.0000000 )
                  (  0.0000000 -1.0000000  0.0000000 )
                  (  0.0000000  0.0000000 -1.0000000 )


      isym =  6     inv. 180 deg rotation - cart. axis [0,0,1]   

 cryst.   s( 6) = (     1          0          0      )
                  (     0          1          0      )
                  (     0          0         -1      )

 cart.    s( 6) = (  1.0000000  0.0000000  0.0000000 )
                  (  0.0000000  1.0000000  0.0000000 )
                  (  0.0000000  0.0000000 -1.0000000 )


      isym =  7     inv. 180 deg rotation - cart. axis [0,1,0]   

 cryst.   s( 7) = (     1          0          0      )
                  (     0         -1          0      )
                  (     0          0          1      )

 cart.    s( 7) = (  1.0000000  0.0000000  0.0000000 )
                  (  0.0000000 -1.0000000  0.0000000 )
                  (  0.0000000  0.0000000  1.0000000 )


      isym =  8     inv. 180 deg rotation - cart. axis [1,0,0]   

 cryst.   s( 8) = (    -1          0          0      )
                  (     0          1          0      )
                  (     0          0          1      )

 cart.    s( 8) = ( -1.0000000  0.0000000  0.0000000 )
                  (  0.0000000  1.0000000  0.0000000 )
                  (  0.0000000  0.0000000  1.0000000 )


     point group D_2h (mmm) 
     there are  8 classes
     the character table:

       E     C2    C2'   C2''  i     s_v   s_v'  s_v''
A_g    1.00  1.00  1.00  1.00  1.00  1.00  1.00  1.00
B_1g   1.00  1.00 -1.00 -1.00  1.00  1.00 -1.00 -1.00
B_2g   1.00 -1.00  1.00 -1.00  1.00 -1.00  1.00 -1.00
B_3g   1.00 -1.00 -1.00  1.00  1.00 -1.00 -1.00  1.00
A_u    1.00  1.00  1.00  1.00 -1.00 -1.00 -1.00 -1.00
B_1u   1.00  1.00 -1.00 -1.00 -1.00 -1.00  1.00  1.00
B_2u   1.00 -1.00  1.00 -1.00 -1.00  1.00 -1.00  1.00
B_3u   1.00 -1.00 -1.00  1.00 -1.00  1.00  1.00 -1.00

     the symmetry operations in each class and the name of the first element:

     E        1
          identity                                               
     C2       2
          180 deg rotation - cart. axis [0,0,1]                  
     C2'      4
          180 deg rotation - cart. axis [1,0,0]                  
     C2''     3
          180 deg rotation - cart. axis [0,1,0]                  
     i        5
          inversion                                              
     s_v      6
          inv. 180 deg rotation - cart. axis [0,0,1]             
     s_v'     8
          inv. 180 deg rotation - cart. axis [1,0,0]             
     s_v''    7
          inv. 180 deg rotation - cart. axis [0,1,0]             

   Cartesian axes

     site n.     atom                  positions (alat units)
         1        C      tau(   1) = (   0.0000000   0.0000000   0.0000000  )

   Crystallographic axes

     site n.     atom                  positions (cryst. coord.)
         1        C      tau(   1) = (  0.0000000  0.0000000  0.0000000  )

     number of k points=     7  Gaussian smearing, width (Ry)=  0.0050
                       cart. coord. in units 2pi/alat
        k(    1) = (   0.5000000   0.3333333   0.2500000), wk =   0.2857143
        k(    2) = (   0.5000000   0.3333333   0.0000000), wk =   0.2857143
        k(    3) = (   0.0000000   0.3333333   0.2500000), wk =   0.2857143
        k(    4) = (   0.5000000   0.0000000   0.2500000), wk =   0.2857143
        k(    5) = (   0.5000000   0.0000000   0.0000000), wk =   0.2857143
        k(    6) = (   0.0000000   0.3333333   0.0000000), wk =   0.2857143
        k(    7) = (   0.0000000   0.0000000   0.2500000), wk =   0.2857143

                       cryst. coord.
        k(    1) = (   0.5000000   0.5000000   0.5000000), wk =   0.2857143
        k(    2) = (   0.5000000   0.5000000   0.0000000), wk =   0.2857143
        k(    3) = (   0.0000000   0.5000000   0.5000000), wk =   0.2857143
        k(    4) = (   0.5000000   0.0000000   0.5000000), wk =   0.2857143
        k(    5) = (   0.5000000   0.0000000   0.0000000), wk =   0.2857143
        k(    6) = (   0.0000000   0.5000000   0.0000000), wk =   0.2857143
        k(    7) = (   0.0000000   0.0000000   0.5000000), wk =   0.2857143

     Dense  grid:     8937 G-vectors     FFT dimensions: (  18,  27,  36)

     Dynamical RAM for                 wfc:       0.10 MB

     Dynamical RAM for     wfc (w. buffer):       0.10 MB

     Dynamical RAM for           str. fact:       0.14 MB

     Dynamical RAM for           local pot:       0.00 MB

     Dynamical RAM for          nlocal pot:       0.14 MB

     Dynamical RAM for                qrad:       0.41 MB

     Dynamical RAM for          rho,v,vnew:       0.81 MB

     Dynamical RAM for           G-vectors:       0.58 MB

     Dynamical RAM for          h,s,v(r/c):       0.01 MB

     Dynamical RAM for          <psi|beta>:       0.00 MB

     Dynamical RAM for                 psi:       0.21 MB

     Dynamical RAM for                hpsi:       0.21 MB

     Dynamical RAM for      wfcinit/wfcrot:       0.21 MB

     Estimated static dynamical RAM per process >       3.12 MB

     Estimated max dynamical RAM per process >       3.53 MB

     The potential is recalculated from file :
     sweeps/ORC_8/ORC_01.save/charge-density

     Starting wfcs are    4 randomized atomic wfcs +    2 random wfcs

     Band Structure Calculation
     Davidson diagonalization with overlap

     Computing kpt #:     1  of     7
     total cpu time spent up to now is        0.2 secs

     Computing kpt #:     2  of     7
     total cpu time spent up to now is        0.4 secs

     Computing kpt #:     3  of     7
     total cpu time spent up to now is        0.5 secs

     Computing kpt #:     4  of     7
     total cpu time spent up to now is        0.8 secs

     Computing kpt #:     5  of     7
     total cpu time spent up to now is        0.9 secs

     Computing kpt #:     6  of     7
     total cpu time spent up to now is        1.1 secs

     Computing kpt #:     7  of     7
     total cpu time spent up to now is        1.2 secs

     ethr =  2.50E-10,  avg # of iterations = 29.1

     total cpu time spent up to now is        1.2 secs

     End of band structure calculation

          k = 0.5000 0.3333 0.2500 (  1112 PWs)   bands (ev):

    -4.6834   2.1931   4.0940   6.9083  15.2364  20.2342

          k = 0.5000 0.3333 0.0000 (  1124 PWs)   bands (ev):

    -4.7573   1.9214   3.9425   7.5294  14.4440  24.2161

          k = 0.0000 0.3333 0.2500 (  1128 PWs)   bands (ev):

   -10.6181  -4.2261  -0.3596  10.1323  18.0647  20.5845

          k = 0.5000 0.0000 0.2500 (  1112 PWs)   bands (ev):

    -5.6379  -0.3597   5.8492   8.7553  16.0292  25.2669

          k = 0.5000 0.0000 0.0000 (  1108 PWs)   bands (ev):

    -5.7442  -0.6896   6.7450   8.7151  20.5542  20.8403

          k = 0.0000 0.3333 0.0000 (  1130 PWs)   bands (ev):

   -10.8718  -4.5469   0.9651  15.4748  15.8761  16.1393

          k = 0.0000 0.0000 0.2500 (  1118 PWs)   bands (ev):

   -12.9533  -2.3814   2.6574  14.6561  16.1062  17.8053

     Writing all to output data dir sweeps/ORC_8/ORC_01.save/ :
     XML data file, pseudopotentials, collected wavefunctions
 
     init_run     :      2.41s CPU      0.08s WALL (       1 calls)
     electrons    :     54.14s CPU      1.08s WALL (       1 calls)

     Called by init_run:
     wfcinit      :      0.03s CPU      0.00s WALL (       1 calls)
     wfcinit:atom :      0.08s CPU      0.00s WALL (       7 calls)
     wfcinit:wfcr :      2.79s CPU      0.06s WALL (       7 calls)
     potinit      :      0.23s CPU      0.00s WALL (       1 calls)
     hinit0       :      2.14s CPU      0.07s WALL (       1 calls)

     Called by electrons:
     c_bands      :     54.13s CPU      1.08s WALL (       1 calls)
     v_of_rho     :      0.18s CPU      0.00s WALL (       1 calls)
     v_h          :      0.04s CPU      0.00s WALL (       1 calls)
     v_xc         :      0.15s CPU      0.00s WALL (       1 calls)

     Called by c_bands:
     init_us_2    :      0.10s CPU      0.00s WALL (       7 calls)
     cegterg      :     51.01s CPU      1.02s WALL (      13 calls)

     Called by sum_band:

     Called by *egterg:
     cdiaghg      :      0.88s CPU      0.02s WALL (     211 calls)
     cegterg:over :      0.56s CPU      0.01s WALL (     204 calls)
     cegterg:upda :      1.88s CPU      0.04s WALL (     204 calls)
     cegterg:last :      0.40s CPU      0.01s WALL (     107 calls)
     h_psi        :     45.49s CPU      0.90s WALL (     224 calls)
     g_psi        :      1.94s CPU      0.04s WALL (     204 calls)

     Called by h_psi:
     h_psi:calbec :      0.47s CPU      0.01s WALL (     224 calls)
     vloc_psi     :     41.81s CPU      0.83s WALL (     224 calls)
     add_vuspsi   :      0.38s CPU      0.01s WALL (     224 calls)

     General routines
     calbec       :      0.33s CPU      0.01s WALL (     224 calls)
     fft          :      0.84s CPU      0.02s WALL (      10 calls)
     fftw         :     23.74s CPU      0.47s WALL (    1404 calls)
     davcio       :      0.03s CPU      0.00s WALL (      14 calls)
 
     Parallel routines
 
     PWSCF        :     58.46s CPU      1.22s WALL

 
   This run was terminated on:  11:44:24  17Jun2025            

=------------------------------------------------------------------------------=
   JOB DONE.
=------------------------------------------------------------------------------=
