
     Program PWSCF v.7.3.1 starts on 17Jun2025 at 11:44:42 

     This program is part of the open-source Quantum ESPRESSO suite
     for quantum simulation of materials; please cite
         "P. Giannozzi et al., J. Phys.:Condens. Matter 21 395502 (2009);
         "P. Giannozzi et al., J. Phys.:Condens. Matter 29 465901 (2017);
         "P. Giannozzi et al., J. Chem. Phys. 152 154105 (2020);
          URL http://www.quantum-espresso.org", 
     in publications or presentations arising from this work. More details at
     http://www.quantum-espresso.org/quote

     Parallel version (MPI & OpenMP), running on      96 processor cores
     Number of MPI processes:                 1
     Threads/MPI process:                    96

     MPI processes distributed on     1 nodes
     122184 MiB available memory on the printing compute node when the environment starts
 
     Waiting for input...
     Reading input from standard input
Warning: card &IONS ignored
Warning: card     ION_DYNAMICS = 'BFGS' ignored
Warning: card /&END ignored

     Current dimensions of program PWSCF are:
     Max number of different atomic species (ntypx) = 10
     Max number of k-points (npk) =  40000
     Max angular momentum in pseudopotentials (lmaxx) =  4

     Atomic positions and unit cell read from directory:
     sweeps/ORC_8/ORC_03.save/
 
 
     Subspace diagonalization in iterative solution of the eigenvalue problem:
     a serial algorithm will be used

 
     G-vector sticks info
     --------------------
     sticks:   dense  smooth     PW     G-vecs:    dense   smooth      PW
     Sum        3393    3393    943               242619   242619   34951
 
     Using Slab Decomposition
 


     bravais-lattice index     =            8
     lattice parameter (alat)  =       9.4248  a.u.
     unit-cell volume          =    2511.5084 (a.u.)^3
     number of atoms/cell      =            1
     number of atomic types    =            1
     number of electrons       =         4.00
     number of Kohn-Sham states=            6
     kinetic-energy cutoff     =      80.0000  Ry
     charge density cutoff     =     320.0000  Ry
     Exchange-correlation= PBE
                           (   1   4   3   4   0   0   0)

     celldm(1)=   9.424778  celldm(2)=   1.500000  celldm(3)=   2.000000
     celldm(4)=   0.000000  celldm(5)=   0.000000  celldm(6)=   0.000000

     crystal axes: (cart. coord. in units of alat)
               a(1) = (   1.000000   0.000000   0.000000 )  
               a(2) = (   0.000000   1.500000   0.000000 )  
               a(3) = (   0.000000   0.000000   2.000000 )  

     reciprocal axes: (cart. coord. in units 2 pi/alat)
               b(1) = (  1.000000  0.000000  0.000000 )  
               b(2) = (  0.000000  0.666667  0.000000 )  
               b(3) = (  0.000000  0.000000  0.500000 )  


     PseudoPot. # 1 for C  read from file:
     ./C_ONCV_PBE_sr.upf
     MD5 check sum: b68b6074392897e22e8b22f1bd7aa93e
     Pseudo is Norm-conserving, Zval =  4.0
     Generated using ONCVPSP code by D. R. Hamann
     Using radial grid of 1248 points,  4 beta functions with: 
                l(1) =   0
                l(2) =   0
                l(3) =   1
                l(4) =   1

     atomic species   valence    mass     pseudopotential
     C                 4.00    10.81100     C ( 1.00)

      8 Sym. Ops., with inversion, found


                                    s                        frac. trans.

      isym =  1     identity                                     

 cryst.   s( 1) = (     1          0          0      )
                  (     0          1          0      )
                  (     0          0          1      )

 cart.    s( 1) = (  1.0000000  0.0000000  0.0000000 )
                  (  0.0000000  1.0000000  0.0000000 )
                  (  0.0000000  0.0000000  1.0000000 )


      isym =  2     180 deg rotation - cart. axis [0,0,1]        

 cryst.   s( 2) = (    -1          0          0      )
                  (     0         -1          0      )
                  (     0          0          1      )

 cart.    s( 2) = ( -1.0000000  0.0000000  0.0000000 )
                  (  0.0000000 -1.0000000  0.0000000 )
                  (  0.0000000  0.0000000  1.0000000 )


      isym =  3     180 deg rotation - cart. axis [0,1,0]        

 cryst.   s( 3) = (    -1          0          0      )
                  (     0          1          0      )
                  (     0          0         -1      )

 cart.    s( 3) = ( -1.0000000  0.0000000  0.0000000 )
                  (  0.0000000  1.0000000  0.0000000 )
                  (  0.0000000  0.0000000 -1.0000000 )


      isym =  4     180 deg rotation - cart. axis [1,0,0]        

 cryst.   s( 4) = (     1          0          0      )
                  (     0         -1          0      )
                  (     0          0         -1      )

 cart.    s( 4) = (  1.0000000  0.0000000  0.0000000 )
                  (  0.0000000 -1.0000000  0.0000000 )
                  (  0.0000000  0.0000000 -1.0000000 )


      isym =  5     inversion                                    

 cryst.   s( 5) = (    -1          0          0      )
                  (     0         -1          0      )
                  (     0          0         -1      )

 cart.    s( 5) = ( -1.0000000  0.0000000  0.0000000 )
                  (  0.0000000 -1.0000000  0.0000000 )
                  (  0.0000000  0.0000000 -1.0000000 )


      isym =  6     inv. 180 deg rotation - cart. axis [0,0,1]   

 cryst.   s( 6) = (     1          0          0      )
                  (     0          1          0      )
                  (     0          0         -1      )

 cart.    s( 6) = (  1.0000000  0.0000000  0.0000000 )
                  (  0.0000000  1.0000000  0.0000000 )
                  (  0.0000000  0.0000000 -1.0000000 )


      isym =  7     inv. 180 deg rotation - cart. axis [0,1,0]   

 cryst.   s( 7) = (     1          0          0      )
                  (     0         -1          0      )
                  (     0          0          1      )

 cart.    s( 7) = (  1.0000000  0.0000000  0.0000000 )
                  (  0.0000000 -1.0000000  0.0000000 )
                  (  0.0000000  0.0000000  1.0000000 )


      isym =  8     inv. 180 deg rotation - cart. axis [1,0,0]   

 cryst.   s( 8) = (    -1          0          0      )
                  (     0          1          0      )
                  (     0          0          1      )

 cart.    s( 8) = ( -1.0000000  0.0000000  0.0000000 )
                  (  0.0000000  1.0000000  0.0000000 )
                  (  0.0000000  0.0000000  1.0000000 )


     point group D_2h (mmm) 
     there are  8 classes
     the character table:

       E     C2    C2'   C2''  i     s_v   s_v'  s_v''
A_g    1.00  1.00  1.00  1.00  1.00  1.00  1.00  1.00
B_1g   1.00  1.00 -1.00 -1.00  1.00  1.00 -1.00 -1.00
B_2g   1.00 -1.00  1.00 -1.00  1.00 -1.00  1.00 -1.00
B_3g   1.00 -1.00 -1.00  1.00  1.00 -1.00 -1.00  1.00
A_u    1.00  1.00  1.00  1.00 -1.00 -1.00 -1.00 -1.00
B_1u   1.00  1.00 -1.00 -1.00 -1.00 -1.00  1.00  1.00
B_2u   1.00 -1.00  1.00 -1.00 -1.00  1.00 -1.00  1.00
B_3u   1.00 -1.00 -1.00  1.00 -1.00  1.00  1.00 -1.00

     the symmetry operations in each class and the name of the first element:

     E        1
          identity                                               
     C2       2
          180 deg rotation - cart. axis [0,0,1]                  
     C2'      4
          180 deg rotation - cart. axis [1,0,0]                  
     C2''     3
          180 deg rotation - cart. axis [0,1,0]                  
     i        5
          inversion                                              
     s_v      6
          inv. 180 deg rotation - cart. axis [0,0,1]             
     s_v'     8
          inv. 180 deg rotation - cart. axis [1,0,0]             
     s_v''    7
          inv. 180 deg rotation - cart. axis [0,1,0]             

   Cartesian axes

     site n.     atom                  positions (alat units)
         1        C      tau(   1) = (   0.0000000   0.0000000   0.0000000  )

   Crystallographic axes

     site n.     atom                  positions (cryst. coord.)
         1        C      tau(   1) = (  0.0000000  0.0000000  0.0000000  )

     number of k points=     7  Gaussian smearing, width (Ry)=  0.0050
                       cart. coord. in units 2pi/alat
        k(    1) = (   0.5000000   0.3333333   0.2500000), wk =   0.2857143
        k(    2) = (   0.5000000   0.3333333   0.0000000), wk =   0.2857143
        k(    3) = (   0.0000000   0.3333333   0.2500000), wk =   0.2857143
        k(    4) = (   0.5000000   0.0000000   0.2500000), wk =   0.2857143
        k(    5) = (   0.5000000   0.0000000   0.0000000), wk =   0.2857143
        k(    6) = (   0.0000000   0.3333333   0.0000000), wk =   0.2857143
        k(    7) = (   0.0000000   0.0000000   0.2500000), wk =   0.2857143

                       cryst. coord.
        k(    1) = (   0.5000000   0.5000000   0.5000000), wk =   0.2857143
        k(    2) = (   0.5000000   0.5000000   0.0000000), wk =   0.2857143
        k(    3) = (   0.0000000   0.5000000   0.5000000), wk =   0.2857143
        k(    4) = (   0.5000000   0.0000000   0.5000000), wk =   0.2857143
        k(    5) = (   0.5000000   0.0000000   0.0000000), wk =   0.2857143
        k(    6) = (   0.0000000   0.5000000   0.0000000), wk =   0.2857143
        k(    7) = (   0.0000000   0.0000000   0.5000000), wk =   0.2857143

     Dense  grid:   242619 G-vectors     FFT dimensions: (  54,  81, 108)

     Dynamical RAM for                 wfc:       2.78 MB

     Dynamical RAM for     wfc (w. buffer):       2.78 MB

     Dynamical RAM for           str. fact:       3.70 MB

     Dynamical RAM for           local pot:       0.00 MB

     Dynamical RAM for          nlocal pot:       3.70 MB

     Dynamical RAM for                qrad:       0.41 MB

     Dynamical RAM for          rho,v,vnew:      21.92 MB

     Dynamical RAM for           G-vectors:      15.73 MB

     Dynamical RAM for          h,s,v(r/c):       0.01 MB

     Dynamical RAM for          <psi|beta>:       0.00 MB

     Dynamical RAM for                 psi:       5.56 MB

     Dynamical RAM for                hpsi:       5.56 MB

     Dynamical RAM for      wfcinit/wfcrot:       5.56 MB

     Estimated static dynamical RAM per process >      73.67 MB

     Estimated max dynamical RAM per process >      84.79 MB

     The potential is recalculated from file :
     sweeps/ORC_8/ORC_03.save/charge-density

     Starting wfcs are    4 randomized atomic wfcs +    2 random wfcs

     Band Structure Calculation
     Davidson diagonalization with overlap

     Computing kpt #:     1  of     7
     total cpu time spent up to now is        4.4 secs

     Computing kpt #:     2  of     7
     total cpu time spent up to now is        8.3 secs

     Computing kpt #:     3  of     7
     total cpu time spent up to now is       10.9 secs

     Computing kpt #:     4  of     7
     total cpu time spent up to now is       14.0 secs

     Computing kpt #:     5  of     7
     total cpu time spent up to now is       15.7 secs

     Computing kpt #:     6  of     7
     total cpu time spent up to now is       17.4 secs

     Computing kpt #:     7  of     7
     total cpu time spent up to now is       18.9 secs

     ethr =  2.50E-10,  avg # of iterations = 55.7

     total cpu time spent up to now is       18.9 secs

     End of band structure calculation

          k = 0.5000 0.3333 0.2500 ( 30296 PWs)   bands (ev):

   -13.4523  -5.1923  -4.9462  -4.9362   1.7319   1.8623

          k = 0.5000 0.3333 0.0000 ( 30332 PWs)   bands (ev):

   -13.4523  -5.1924  -4.9463  -4.9360   1.6021   1.6490

          k = 0.0000 0.3333 0.2500 ( 30388 PWs)   bands (ev):

   -13.4727  -4.9887  -4.9767  -4.9454   0.3498   0.5506

          k = 0.5000 0.0000 0.2500 ( 30340 PWs)   bands (ev):

   -13.4524  -5.1940  -4.9379  -4.9371   1.2964   1.3076

          k = 0.5000 0.0000 0.0000 ( 30302 PWs)   bands (ev):

   -13.4524  -5.1941  -4.9379  -4.9368   1.0480   1.0870

          k = 0.0000 0.3333 0.0000 ( 30340 PWs)   bands (ev):

   -13.4727  -4.9888  -4.9761  -4.9454   0.0996   0.3429

          k = 0.0000 0.0000 0.2500 ( 30322 PWs)   bands (ev):

   -13.4728  -4.9781  -4.9762  -4.9457  -0.2914   0.1776

     Writing all to output data dir sweeps/ORC_8/ORC_03.save/ :
     XML data file, pseudopotentials, collected wavefunctions
 
     init_run     :     25.42s CPU      0.69s WALL (       1 calls)
     electrons    :   1566.64s CPU     18.14s WALL (       1 calls)

     Called by init_run:
     wfcinit      :      0.33s CPU      0.01s WALL (       1 calls)
     wfcinit:atom :      1.50s CPU      0.02s WALL (       7 calls)
     wfcinit:wfcr :     60.96s CPU      0.79s WALL (       7 calls)
     potinit      :     17.23s CPU      0.36s WALL (       1 calls)
     hinit0       :      7.75s CPU      0.18s WALL (       1 calls)

     Called by electrons:
     c_bands      :   1566.63s CPU     18.14s WALL (       1 calls)
     v_of_rho     :     15.00s CPU      0.31s WALL (       1 calls)
     v_h          :      4.87s CPU      0.10s WALL (       1 calls)
     v_xc         :     10.13s CPU      0.21s WALL (       1 calls)

     Called by c_bands:
     init_us_2    :      3.42s CPU      0.05s WALL (       7 calls)
     cegterg      :   1496.49s CPU     17.24s WALL (      22 calls)

     Called by sum_band:

     Called by *egterg:
     cdiaghg      :      3.40s CPU      0.04s WALL (     397 calls)
     cegterg:over :     48.16s CPU      0.55s WALL (     390 calls)
     cegterg:upda :     34.76s CPU      0.40s WALL (     390 calls)
     cegterg:last :     33.60s CPU      0.39s WALL (     185 calls)
     h_psi        :   1417.73s CPU     16.39s WALL (     419 calls)
     g_psi        :      2.52s CPU      0.04s WALL (     390 calls)

     Called by h_psi:
     h_psi:calbec :     25.47s CPU      0.29s WALL (     419 calls)
     vloc_psi     :   1364.59s CPU     15.80s WALL (     419 calls)
     add_vuspsi   :     17.46s CPU      0.20s WALL (     419 calls)

     General routines
     calbec       :     24.43s CPU      0.28s WALL (     419 calls)
     fft          :      4.11s CPU      0.09s WALL (      10 calls)
     fftw         :   1252.07s CPU     14.30s WALL (    2378 calls)
     davcio       :      0.84s CPU      0.01s WALL (      14 calls)
 
     Parallel routines
 
     PWSCF        :  26m40.65s CPU     18.98s WALL

 
   This run was terminated on:  11:45: 1  17Jun2025            

=------------------------------------------------------------------------------=
   JOB DONE.
=------------------------------------------------------------------------------=
