
     Program PWSCF v.7.3.1 starts on 17Jun2025 at 11:44:34 

     This program is part of the open-source Quantum ESPRESSO suite
     for quantum simulation of materials; please cite
         "P. Giannozzi et al., J. Phys.:Condens. Matter 21 395502 (2009);
         "P. Giannozzi et al., J. Phys.:Condens. Matter 29 465901 (2017);
         "P. Giannozzi et al., J. Chem. Phys. 152 154105 (2020);
          URL http://www.quantum-espresso.org", 
     in publications or presentations arising from this work. More details at
     http://www.quantum-espresso.org/quote

     Parallel version (MPI & OpenMP), running on      96 processor cores
     Number of MPI processes:                 1
     Threads/MPI process:                    96

     MPI processes distributed on     1 nodes
     122205 MiB available memory on the printing compute node when the environment starts
 
     Waiting for input...
     Reading input from standard input

     Current dimensions of program PWSCF are:
     Max number of different atomic species (ntypx) = 10
     Max number of k-points (npk) =  40000
     Max angular momentum in pseudopotentials (lmaxx) =  4
 
     Subspace diagonalization in iterative solution of the eigenvalue problem:
     a serial algorithm will be used

 
     G-vector sticks info
     --------------------
     sticks:   dense  smooth     PW     G-vecs:    dense   smooth      PW
     Sum        3393    3393    855               242619   242619   30299
 
     Using Slab Decomposition
 


     bravais-lattice index     =            8
     lattice parameter (alat)  =       9.4248  a.u.
     unit-cell volume          =    2511.5084 (a.u.)^3
     number of atoms/cell      =            1
     number of atomic types    =            1
     number of electrons       =         4.00
     number of Kohn-Sham states=            6
     kinetic-energy cutoff     =      80.0000  Ry
     charge density cutoff     =     320.0000  Ry
     scf convergence threshold =      1.0E-08
     mixing beta               =       0.7000
     number of iterations used =            8  plain     mixing
     Exchange-correlation= PBE
                           (   1   4   3   4   0   0   0)

     celldm(1)=   9.424778  celldm(2)=   1.500000  celldm(3)=   2.000000
     celldm(4)=   0.000000  celldm(5)=   0.000000  celldm(6)=   0.000000

     crystal axes: (cart. coord. in units of alat)
               a(1) = (   1.000000   0.000000   0.000000 )  
               a(2) = (   0.000000   1.500000   0.000000 )  
               a(3) = (   0.000000   0.000000   2.000000 )  

     reciprocal axes: (cart. coord. in units 2 pi/alat)
               b(1) = (  1.000000  0.000000  0.000000 )  
               b(2) = (  0.000000  0.666667  0.000000 )  
               b(3) = (  0.000000  0.000000  0.500000 )  


     PseudoPot. # 1 for C  read from file:
     ./C_ONCV_PBE_sr.upf
     MD5 check sum: b68b6074392897e22e8b22f1bd7aa93e
     Pseudo is Norm-conserving, Zval =  4.0
     Generated using ONCVPSP code by D. R. Hamann
     Using radial grid of 1248 points,  4 beta functions with: 
                l(1) =   0
                l(2) =   0
                l(3) =   1
                l(4) =   1

     atomic species   valence    mass     pseudopotential
     C                 4.00    10.81100     C ( 1.00)

      8 Sym. Ops., with inversion, found


                                    s                        frac. trans.

      isym =  1     identity                                     

 cryst.   s( 1) = (     1          0          0      )
                  (     0          1          0      )
                  (     0          0          1      )

 cart.    s( 1) = (  1.0000000  0.0000000  0.0000000 )
                  (  0.0000000  1.0000000  0.0000000 )
                  (  0.0000000  0.0000000  1.0000000 )


      isym =  2     180 deg rotation - cart. axis [0,0,1]        

 cryst.   s( 2) = (    -1          0          0      )
                  (     0         -1          0      )
                  (     0          0          1      )

 cart.    s( 2) = ( -1.0000000  0.0000000  0.0000000 )
                  (  0.0000000 -1.0000000  0.0000000 )
                  (  0.0000000  0.0000000  1.0000000 )


      isym =  3     180 deg rotation - cart. axis [0,1,0]        

 cryst.   s( 3) = (    -1          0          0      )
                  (     0          1          0      )
                  (     0          0         -1      )

 cart.    s( 3) = ( -1.0000000  0.0000000  0.0000000 )
                  (  0.0000000  1.0000000  0.0000000 )
                  (  0.0000000  0.0000000 -1.0000000 )


      isym =  4     180 deg rotation - cart. axis [1,0,0]        

 cryst.   s( 4) = (     1          0          0      )
                  (     0         -1          0      )
                  (     0          0         -1      )

 cart.    s( 4) = (  1.0000000  0.0000000  0.0000000 )
                  (  0.0000000 -1.0000000  0.0000000 )
                  (  0.0000000  0.0000000 -1.0000000 )


      isym =  5     inversion                                    

 cryst.   s( 5) = (    -1          0          0      )
                  (     0         -1          0      )
                  (     0          0         -1      )

 cart.    s( 5) = ( -1.0000000  0.0000000  0.0000000 )
                  (  0.0000000 -1.0000000  0.0000000 )
                  (  0.0000000  0.0000000 -1.0000000 )


      isym =  6     inv. 180 deg rotation - cart. axis [0,0,1]   

 cryst.   s( 6) = (     1          0          0      )
                  (     0          1          0      )
                  (     0          0         -1      )

 cart.    s( 6) = (  1.0000000  0.0000000  0.0000000 )
                  (  0.0000000  1.0000000  0.0000000 )
                  (  0.0000000  0.0000000 -1.0000000 )


      isym =  7     inv. 180 deg rotation - cart. axis [0,1,0]   

 cryst.   s( 7) = (     1          0          0      )
                  (     0         -1          0      )
                  (     0          0          1      )

 cart.    s( 7) = (  1.0000000  0.0000000  0.0000000 )
                  (  0.0000000 -1.0000000  0.0000000 )
                  (  0.0000000  0.0000000  1.0000000 )


      isym =  8     inv. 180 deg rotation - cart. axis [1,0,0]   

 cryst.   s( 8) = (    -1          0          0      )
                  (     0          1          0      )
                  (     0          0          1      )

 cart.    s( 8) = ( -1.0000000  0.0000000  0.0000000 )
                  (  0.0000000  1.0000000  0.0000000 )
                  (  0.0000000  0.0000000  1.0000000 )


     point group D_2h (mmm) 
     there are  8 classes
     the character table:

       E     C2    C2'   C2''  i     s_v   s_v'  s_v''
A_g    1.00  1.00  1.00  1.00  1.00  1.00  1.00  1.00
B_1g   1.00  1.00 -1.00 -1.00  1.00  1.00 -1.00 -1.00
B_2g   1.00 -1.00  1.00 -1.00  1.00 -1.00  1.00 -1.00
B_3g   1.00 -1.00 -1.00  1.00  1.00 -1.00 -1.00  1.00
A_u    1.00  1.00  1.00  1.00 -1.00 -1.00 -1.00 -1.00
B_1u   1.00  1.00 -1.00 -1.00 -1.00 -1.00  1.00  1.00
B_2u   1.00 -1.00  1.00 -1.00 -1.00  1.00 -1.00  1.00
B_3u   1.00 -1.00 -1.00  1.00 -1.00  1.00  1.00 -1.00

     the symmetry operations in each class and the name of the first element:

     E        1
          identity                                               
     C2       2
          180 deg rotation - cart. axis [0,0,1]                  
     C2'      4
          180 deg rotation - cart. axis [1,0,0]                  
     C2''     3
          180 deg rotation - cart. axis [0,1,0]                  
     i        5
          inversion                                              
     s_v      6
          inv. 180 deg rotation - cart. axis [0,0,1]             
     s_v'     8
          inv. 180 deg rotation - cart. axis [1,0,0]             
     s_v''    7
          inv. 180 deg rotation - cart. axis [0,1,0]             

   Cartesian axes

     site n.     atom                  positions (alat units)
         1        C      tau(   1) = (   0.0000000   0.0000000   0.0000000  )

   Crystallographic axes

     site n.     atom                  positions (cryst. coord.)
         1        C      tau(   1) = (  0.0000000  0.0000000  0.0000000  )

     number of k points=     1  Gaussian smearing, width (Ry)=  0.0050
                       cart. coord. in units 2pi/alat
        k(    1) = (   0.0000000   0.0000000   0.0000000), wk =   2.0000000

                       cryst. coord.
        k(    1) = (   0.0000000   0.0000000   0.0000000), wk =   2.0000000

     Dense  grid:   242619 G-vectors     FFT dimensions: (  54,  81, 108)

     Dynamical RAM for                 wfc:       2.78 MB

     Dynamical RAM for     wfc (w. buffer):       2.78 MB

     Dynamical RAM for           str. fact:       3.70 MB

     Dynamical RAM for           local pot:       0.00 MB

     Dynamical RAM for          nlocal pot:       3.70 MB

     Dynamical RAM for                qrad:       0.41 MB

     Dynamical RAM for          rho,v,vnew:      21.92 MB

     Dynamical RAM for               rhoin:       7.31 MB

     Dynamical RAM for            rho*nmix:      59.23 MB

     Dynamical RAM for           G-vectors:      15.73 MB

     Dynamical RAM for          h,s,v(r/c):       0.01 MB

     Dynamical RAM for          <psi|beta>:       0.00 MB

     Dynamical RAM for                 psi:       5.56 MB

     Dynamical RAM for                hpsi:       5.56 MB

     Dynamical RAM for      wfcinit/wfcrot:       5.56 MB

     Estimated static dynamical RAM per process >      80.98 MB

     Estimated max dynamical RAM per process >     151.33 MB

     Initial potential from superposition of free atoms

     starting charge       4.0000, renormalised to       4.0000

     negative rho (up, down):  6.372E-06 0.000E+00
     Starting wfcs are    4 randomized atomic wfcs +    2 random wfcs

     total cpu time spent up to now is        0.7 secs

     Self-consistent Calculation

     iteration #  1     ecut=    80.00 Ry     beta= 0.70
     Davidson diagonalization with overlap

---- Real-time Memory Report at c_bands before calling an iterative solver
           282 MiB given to the printing process from OS
             0 MiB allocation reported by mallinfo(arena+hblkhd)
        121995 MiB available memory on the node where the printing process lives
------------------
     ethr =  1.00E-02,  avg # of iterations =  7.0

     Threshold (ethr) on eigenvalues was too large:
     Diagonalizing with lowered threshold

     Davidson diagonalization with overlap

---- Real-time Memory Report at c_bands before calling an iterative solver
           282 MiB given to the printing process from OS
             0 MiB allocation reported by mallinfo(arena+hblkhd)
        121978 MiB available memory on the node where the printing process lives
------------------
     ethr =  9.18E-04,  avg # of iterations =  1.0

     negative rho (up, down):  5.291E-07 0.000E+00

     total cpu time spent up to now is        2.1 secs

     total energy              =     -10.72814414 Ry
     estimated scf accuracy    <       0.03669570 Ry

     iteration #  2     ecut=    80.00 Ry     beta= 0.70
     Davidson diagonalization with overlap

---- Real-time Memory Report at c_bands before calling an iterative solver
           388 MiB given to the printing process from OS
             0 MiB allocation reported by mallinfo(arena+hblkhd)
        121864 MiB available memory on the node where the printing process lives
------------------
     ethr =  9.17E-04,  avg # of iterations =  1.0

     negative rho (up, down):  2.598E-07 0.000E+00

     total cpu time spent up to now is        2.8 secs

     total energy              =     -10.72868888 Ry
     estimated scf accuracy    <       0.04174038 Ry

     iteration #  3     ecut=    80.00 Ry     beta= 0.70
     Davidson diagonalization with overlap

---- Real-time Memory Report at c_bands before calling an iterative solver
           408 MiB given to the printing process from OS
             0 MiB allocation reported by mallinfo(arena+hblkhd)
        121868 MiB available memory on the node where the printing process lives
------------------
     ethr =  9.17E-04,  avg # of iterations =  1.0

     negative rho (up, down):  1.631E-07 0.000E+00

     total cpu time spent up to now is        3.3 secs

     total energy              =     -10.73011208 Ry
     estimated scf accuracy    <       0.00740711 Ry

     iteration #  4     ecut=    80.00 Ry     beta= 0.70
     Davidson diagonalization with overlap

---- Real-time Memory Report at c_bands before calling an iterative solver
           415 MiB given to the printing process from OS
             0 MiB allocation reported by mallinfo(arena+hblkhd)
        121850 MiB available memory on the node where the printing process lives
------------------
     ethr =  1.85E-04,  avg # of iterations =  1.0

     total cpu time spent up to now is        3.8 secs

     total energy              =     -10.73026527 Ry
     estimated scf accuracy    <       0.00068319 Ry

     iteration #  5     ecut=    80.00 Ry     beta= 0.70
     Davidson diagonalization with overlap

---- Real-time Memory Report at c_bands before calling an iterative solver
           422 MiB given to the printing process from OS
             0 MiB allocation reported by mallinfo(arena+hblkhd)
        121826 MiB available memory on the node where the printing process lives
------------------
     ethr =  1.71E-05,  avg # of iterations =  9.0

     total cpu time spent up to now is        4.4 secs

     total energy              =     -10.73028896 Ry
     estimated scf accuracy    <       0.00004415 Ry

     iteration #  6     ecut=    80.00 Ry     beta= 0.70
     Davidson diagonalization with overlap

---- Real-time Memory Report at c_bands before calling an iterative solver
           431 MiB given to the printing process from OS
             0 MiB allocation reported by mallinfo(arena+hblkhd)
        121815 MiB available memory on the node where the printing process lives
------------------
     ethr =  1.10E-06,  avg # of iterations =  6.0

     total cpu time spent up to now is        4.9 secs

     total energy              =     -10.73029132 Ry
     estimated scf accuracy    <       0.00004799 Ry

     iteration #  7     ecut=    80.00 Ry     beta= 0.70
     Davidson diagonalization with overlap

---- Real-time Memory Report at c_bands before calling an iterative solver
           439 MiB given to the printing process from OS
             0 MiB allocation reported by mallinfo(arena+hblkhd)
        121808 MiB available memory on the node where the printing process lives
------------------
     ethr =  1.10E-06,  avg # of iterations =  1.0

     total cpu time spent up to now is        5.4 secs

     total energy              =     -10.73029249 Ry
     estimated scf accuracy    <       0.00000014 Ry

     iteration #  8     ecut=    80.00 Ry     beta= 0.70
     Davidson diagonalization with overlap

---- Real-time Memory Report at c_bands before calling an iterative solver
           446 MiB given to the printing process from OS
             0 MiB allocation reported by mallinfo(arena+hblkhd)
        121804 MiB available memory on the node where the printing process lives
------------------
     ethr =  3.56E-09,  avg # of iterations =  1.0

     total cpu time spent up to now is        5.9 secs

     total energy              =     -10.73029249 Ry
     estimated scf accuracy    <       0.00000003 Ry

     iteration #  9     ecut=    80.00 Ry     beta= 0.70
     Davidson diagonalization with overlap

---- Real-time Memory Report at c_bands before calling an iterative solver
           454 MiB given to the printing process from OS
             0 MiB allocation reported by mallinfo(arena+hblkhd)
        121796 MiB available memory on the node where the printing process lives
------------------
     ethr =  7.24E-10,  avg # of iterations =  1.0

     total cpu time spent up to now is        6.3 secs

     total energy              =     -10.73029249 Ry
     estimated scf accuracy    <       0.00000002 Ry

     iteration # 10     ecut=    80.00 Ry     beta= 0.70
     Davidson diagonalization with overlap

---- Real-time Memory Report at c_bands before calling an iterative solver
           461 MiB given to the printing process from OS
             0 MiB allocation reported by mallinfo(arena+hblkhd)
        121806 MiB available memory on the node where the printing process lives
------------------
     ethr =  3.95E-10,  avg # of iterations =  1.0

     total cpu time spent up to now is        6.7 secs

     End of self-consistent calculation

          k = 0.0000 0.0000 0.0000 ( 30299 PWs)   bands (ev):

   -13.4727  -4.9774  -4.9762  -4.9456  -0.5060   1.0202

     occupation numbers 
     1.0000   0.4110   0.4012   0.1878   0.0000   0.0000

     the Fermi energy is    -4.9882 ev

!    total energy              =     -10.73029250 Ry
     estimated scf accuracy    <          4.6E-09 Ry
     smearing contrib. (-TS)   =      -0.00738951 Ry
     internal energy E=F+TS    =     -10.72290299 Ry

     The total energy is F=E-TS. E is the sum of the following terms:
     one-electron contribution =     -10.96039146 Ry
     hartree contribution      =       5.95111502 Ry
     xc contribution           =      -2.82891977 Ry
     ewald contribution        =      -2.88470678 Ry

     convergence has been achieved in  10 iterations

     Writing all to output data dir sweeps/ORC_8/ORC_03.save/ :
     XML data file, charge density, pseudopotentials, collected wavefunctions
 
     init_run     :     33.29s CPU      0.63s WALL (       1 calls)
     electrons    :    513.35s CPU      6.06s WALL (       1 calls)

     Called by init_run:
     wfcinit      :     12.05s CPU      0.19s WALL (       1 calls)
     wfcinit:atom :      0.27s CPU      0.00s WALL (       1 calls)
     wfcinit:wfcr :     10.37s CPU      0.16s WALL (       1 calls)
     potinit      :     16.81s CPU      0.27s WALL (       1 calls)
     hinit0       :      4.36s CPU      0.10s WALL (       1 calls)

     Called by electrons:
     c_bands      :    239.52s CPU      2.90s WALL (      11 calls)
     sum_band     :    106.91s CPU      1.26s WALL (      11 calls)
     v_of_rho     :    108.85s CPU      1.30s WALL (      11 calls)
     v_h          :     14.82s CPU      0.19s WALL (      11 calls)
     v_xc         :     94.01s CPU      1.11s WALL (      11 calls)
     mix_rho      :     61.69s CPU      0.70s WALL (      11 calls)

     Called by c_bands:
     init_us_2    :      9.76s CPU      0.12s WALL (      23 calls)
     cegterg      :    233.59s CPU      2.83s WALL (      11 calls)

     Called by sum_band:
     sum_band:wei :      0.04s CPU      0.00s WALL (      11 calls)
     sum_band:loo :     54.56s CPU      0.64s WALL (      11 calls)
     sum_band:buf :      0.01s CPU      0.00s WALL (      11 calls)
     sum_band:ini :      4.40s CPU      0.05s WALL (      11 calls)

     Called by *egterg:
     cdiaghg      :      0.41s CPU      0.00s WALL (      40 calls)
     cegterg:over :      4.91s CPU      0.06s WALL (      30 calls)
     cegterg:upda :      5.96s CPU      0.08s WALL (      30 calls)
     cegterg:last :      1.95s CPU      0.02s WALL (      16 calls)
     h_psi        :    226.01s CPU      2.76s WALL (      42 calls)
     g_psi        :      0.51s CPU      0.01s WALL (      30 calls)

     Called by h_psi:
     h_psi:calbec :      3.72s CPU      0.04s WALL (      42 calls)
     vloc_psi     :    218.55s CPU      2.68s WALL (      42 calls)
     add_vuspsi   :      2.40s CPU      0.03s WALL (      42 calls)

     General routines
     calbec       :      3.64s CPU      0.04s WALL (      42 calls)
     fft          :     50.72s CPU      0.59s WALL (     110 calls)
     ffts         :      5.40s CPU      0.06s WALL (      11 calls)
     fftw         :    194.07s CPU      2.29s WALL (     394 calls)
 
     Parallel routines
 
     PWSCF        :   9m10.04s CPU      6.75s WALL

 
   This run was terminated on:  11:44:41  17Jun2025            

=------------------------------------------------------------------------------=
   JOB DONE.
=------------------------------------------------------------------------------=
