
     Program PWSCF v.7.3.1 starts on 17Jun2025 at 11:46: 0 

     This program is part of the open-source Quantum ESPRESSO suite
     for quantum simulation of materials; please cite
         "P. Giannozzi et al., J. Phys.:Condens. Matter 21 395502 (2009);
         "P. Giannozzi et al., J. Phys.:Condens. Matter 29 465901 (2017);
         "P. Giannozzi et al., J. Chem. Phys. 152 154105 (2020);
          URL http://www.quantum-espresso.org", 
     in publications or presentations arising from this work. More details at
     http://www.quantum-espresso.org/quote

     Parallel version (MPI & OpenMP), running on      96 processor cores
     Number of MPI processes:                 1
     Threads/MPI process:                    96

     MPI processes distributed on     1 nodes
     122110 MiB available memory on the printing compute node when the environment starts
 
     Waiting for input...
     Reading input from standard input
Warning: card &IONS ignored
Warning: card     ION_DYNAMICS = 'BFGS' ignored
Warning: card /&END ignored

     Current dimensions of program PWSCF are:
     Max number of different atomic species (ntypx) = 10
     Max number of k-points (npk) =  40000
     Max angular momentum in pseudopotentials (lmaxx) =  4

     Atomic positions and unit cell read from directory:
     sweeps/ORCF3_10/ORCF3_02.save/
 
 
     Subspace diagonalization in iterative solution of the eigenvalue problem:
     a serial algorithm will be used

 
     G-vector sticks info
     --------------------
     sticks:   dense  smooth     PW     G-vecs:    dense   smooth      PW
     Sum         465     465    151                 6165     6165    1147
 
     Using Slab Decomposition
 


     bravais-lattice index     =           10
     lattice parameter (alat)  =       6.2832  a.u.
     unit-cell volume          =     129.1928 (a.u.)^3
     number of atoms/cell      =            1
     number of atomic types    =            1
     number of electrons       =         4.00
     number of Kohn-Sham states=            6
     kinetic-energy cutoff     =      50.0000  Ry
     charge density cutoff     =     200.0000  Ry
     Exchange-correlation= PBE
                           (   1   4   3   4   0   0   0)

     celldm(1)=   6.283185  celldm(2)=   1.250000  celldm(3)=   1.666667
     celldm(4)=   0.000000  celldm(5)=   0.000000  celldm(6)=   0.000000

     crystal axes: (cart. coord. in units of alat)
               a(1) = (   0.500000   0.000000   0.833333 )  
               a(2) = (   0.500000   0.625000   0.000000 )  
               a(3) = (   0.000000   0.625000   0.833333 )  

     reciprocal axes: (cart. coord. in units 2 pi/alat)
               b(1) = (  1.000000 -0.800000  0.600000 )  
               b(2) = (  1.000000  0.800000 -0.600000 )  
               b(3) = ( -1.000000  0.800000  0.600000 )  


     PseudoPot. # 1 for C  read from file:
     ./C_ONCV_PBE_sr.upf
     MD5 check sum: b68b6074392897e22e8b22f1bd7aa93e
     Pseudo is Norm-conserving, Zval =  4.0
     Generated using ONCVPSP code by D. R. Hamann
     Using radial grid of 1248 points,  4 beta functions with: 
                l(1) =   0
                l(2) =   0
                l(3) =   1
                l(4) =   1

     atomic species   valence    mass     pseudopotential
     C                 4.00    10.81100     C ( 1.00)

      8 Sym. Ops., with inversion, found


                                    s                        frac. trans.

      isym =  1     identity                                     

 cryst.   s( 1) = (     1          0          0      )
                  (     0          1          0      )
                  (     0          0          1      )

 cart.    s( 1) = (  1.0000000  0.0000000  0.0000000 )
                  (  0.0000000  1.0000000  0.0000000 )
                  (  0.0000000  0.0000000  1.0000000 )


      isym =  2     180 deg rotation - cart. axis [0,0,1]        

 cryst.   s( 2) = (     0         -1          1      )
                  (     0         -1          0      )
                  (     1         -1          0      )

 cart.    s( 2) = ( -1.0000000  0.0000000  0.0000000 )
                  (  0.0000000 -1.0000000  0.0000000 )
                  (  0.0000000  0.0000000  1.0000000 )


      isym =  3     180 deg rotation - cart. axis [0,1,0]        

 cryst.   s( 3) = (    -1          0          0      )
                  (    -1          0          1      )
                  (    -1          1          0      )

 cart.    s( 3) = ( -1.0000000  0.0000000  0.0000000 )
                  (  0.0000000  1.0000000  0.0000000 )
                  (  0.0000000  0.0000000 -1.0000000 )


      isym =  4     180 deg rotation - cart. axis [1,0,0]        

 cryst.   s( 4) = (     0          1         -1      )
                  (     1          0         -1      )
                  (     0          0         -1      )

 cart.    s( 4) = (  1.0000000  0.0000000  0.0000000 )
                  (  0.0000000 -1.0000000  0.0000000 )
                  (  0.0000000  0.0000000 -1.0000000 )


      isym =  5     inversion                                    

 cryst.   s( 5) = (    -1          0          0      )
                  (     0         -1          0      )
                  (     0          0         -1      )

 cart.    s( 5) = ( -1.0000000  0.0000000  0.0000000 )
                  (  0.0000000 -1.0000000  0.0000000 )
                  (  0.0000000  0.0000000 -1.0000000 )


      isym =  6     inv. 180 deg rotation - cart. axis [0,0,1]   

 cryst.   s( 6) = (     0          1         -1      )
                  (     0          1          0      )
                  (    -1          1          0      )

 cart.    s( 6) = (  1.0000000  0.0000000  0.0000000 )
                  (  0.0000000  1.0000000  0.0000000 )
                  (  0.0000000  0.0000000 -1.0000000 )


      isym =  7     inv. 180 deg rotation - cart. axis [0,1,0]   

 cryst.   s( 7) = (     1          0          0      )
                  (     1          0         -1      )
                  (     1         -1          0      )

 cart.    s( 7) = (  1.0000000  0.0000000  0.0000000 )
                  (  0.0000000 -1.0000000  0.0000000 )
                  (  0.0000000  0.0000000  1.0000000 )


      isym =  8     inv. 180 deg rotation - cart. axis [1,0,0]   

 cryst.   s( 8) = (     0         -1          1      )
                  (    -1          0          1      )
                  (     0          0          1      )

 cart.    s( 8) = ( -1.0000000  0.0000000  0.0000000 )
                  (  0.0000000  1.0000000  0.0000000 )
                  (  0.0000000  0.0000000  1.0000000 )


     point group D_2h (mmm) 
     there are  8 classes
     the character table:

       E     C2    C2'   C2''  i     s_v   s_v'  s_v''
A_g    1.00  1.00  1.00  1.00  1.00  1.00  1.00  1.00
B_1g   1.00  1.00 -1.00 -1.00  1.00  1.00 -1.00 -1.00
B_2g   1.00 -1.00  1.00 -1.00  1.00 -1.00  1.00 -1.00
B_3g   1.00 -1.00 -1.00  1.00  1.00 -1.00 -1.00  1.00
A_u    1.00  1.00  1.00  1.00 -1.00 -1.00 -1.00 -1.00
B_1u   1.00  1.00 -1.00 -1.00 -1.00 -1.00  1.00  1.00
B_2u   1.00 -1.00  1.00 -1.00 -1.00  1.00 -1.00  1.00
B_3u   1.00 -1.00 -1.00  1.00 -1.00  1.00  1.00 -1.00

     the symmetry operations in each class and the name of the first element:

     E        1
          identity                                               
     C2       2
          180 deg rotation - cart. axis [0,0,1]                  
     C2'      4
          180 deg rotation - cart. axis [1,0,0]                  
     C2''     3
          180 deg rotation - cart. axis [0,1,0]                  
     i        5
          inversion                                              
     s_v      6
          inv. 180 deg rotation - cart. axis [0,0,1]             
     s_v'     8
          inv. 180 deg rotation - cart. axis [1,0,0]             
     s_v''    7
          inv. 180 deg rotation - cart. axis [0,1,0]             

   Cartesian axes

     site n.     atom                  positions (alat units)
         1        C      tau(   1) = (   0.0000000   0.0000000   0.0000000  )

   Crystallographic axes

     site n.     atom                  positions (cryst. coord.)
         1        C      tau(   1) = (  0.0000000  0.0000000  0.0000000  )

     number of k points=     7  Gaussian smearing, width (Ry)=  0.0050
                       cart. coord. in units 2pi/alat
        k(    1) = (   0.6400000   0.0000000   0.6000000), wk =   0.2857143
        k(    2) = (   0.3600000   0.8000000   0.0000000), wk =   0.2857143
        k(    3) = (   0.5000000   0.4000000   0.3000000), wk =   0.2857143
        k(    4) = (   0.0000000   0.8000000   0.6000000), wk =   0.2857143
        k(    5) = (   1.0000000   0.0000000   0.0000000), wk =   0.2857143
        k(    6) = (   0.0000000   0.8000000   0.0000000), wk =   0.2857143
        k(    7) = (   0.0000000   0.0000000   0.6000000), wk =   0.2857143

                       cryst. coord.
        k(    1) = (   0.8200000   0.3200000   0.5000000), wk =   0.2857143
        k(    2) = (   0.1800000   0.6800000   0.5000000), wk =   0.2857143
        k(    3) = (   0.5000000   0.5000000   0.5000000), wk =   0.2857143
        k(    4) = (   0.5000000   0.5000000   1.0000000), wk =   0.2857143
        k(    5) = (   0.5000000   0.5000000   0.0000000), wk =   0.2857143
        k(    6) = (   0.0000000   0.5000000   0.5000000), wk =   0.2857143
        k(    7) = (   0.5000000   0.0000000   0.5000000), wk =   0.2857143

     Dense  grid:     6165 G-vectors     FFT dimensions: (  27,  24,  30)

     Dynamical RAM for                 wfc:       0.07 MB

     Dynamical RAM for     wfc (w. buffer):       0.07 MB

     Dynamical RAM for           str. fact:       0.09 MB

     Dynamical RAM for           local pot:       0.00 MB

     Dynamical RAM for          nlocal pot:       0.09 MB

     Dynamical RAM for                qrad:       0.32 MB

     Dynamical RAM for          rho,v,vnew:       0.73 MB

     Dynamical RAM for           G-vectors:       0.40 MB

     Dynamical RAM for          h,s,v(r/c):       0.01 MB

     Dynamical RAM for          <psi|beta>:       0.00 MB

     Dynamical RAM for                 psi:       0.14 MB

     Dynamical RAM for                hpsi:       0.14 MB

     Dynamical RAM for      wfcinit/wfcrot:       0.14 MB

     Estimated static dynamical RAM per process >       2.64 MB

     Estimated max dynamical RAM per process >       2.93 MB

     The potential is recalculated from file :
     sweeps/ORCF3_10/ORCF3_02.save/charge-density

     Starting wfcs are    4 randomized atomic wfcs +    2 random wfcs

     Band Structure Calculation
     Davidson diagonalization with overlap

     Computing kpt #:     1  of     7
     total cpu time spent up to now is        0.2 secs

     Computing kpt #:     2  of     7
     total cpu time spent up to now is        0.4 secs

     Computing kpt #:     3  of     7
     total cpu time spent up to now is        0.6 secs

     Computing kpt #:     4  of     7
     total cpu time spent up to now is        0.8 secs

     Computing kpt #:     5  of     7
     total cpu time spent up to now is        0.9 secs

     Computing kpt #:     6  of     7
     total cpu time spent up to now is        1.1 secs

     Computing kpt #:     7  of     7
     total cpu time spent up to now is        1.3 secs

     ethr =  2.50E-10,  avg # of iterations = 22.3

     total cpu time spent up to now is        1.3 secs

     End of band structure calculation

          k = 0.6400 0.0000 0.6000 (   768 PWs)   bands (ev):

    -6.3666  -0.4329   0.2257   1.7300  14.2454  14.9332

          k = 0.3600 0.8000 0.0000 (   768 PWs)   bands (ev):

    -6.3666  -0.4329   0.2257   1.7300  14.2454  14.9332

          k = 0.5000 0.4000 0.3000 (   774 PWs)   bands (ev):

    -7.2056  -2.2085   2.0861   4.3474  12.0288  17.1570

          k = 0.0000 0.8000 0.6000 (   776 PWs)   bands (ev):

    -5.2169  -0.6569   0.3681   2.0543  10.5057  11.8046

          k = 1.0000 0.0000 0.0000 (   776 PWs)   bands (ev):

    -5.2169  -0.6569   0.3681   2.0543  10.5057  11.8046

          k = 0.0000 0.8000 0.0000 (   764 PWs)   bands (ev):

    -5.7878  -1.7326   1.1779   3.3400  11.0611  16.1202

          k = 0.0000 0.0000 0.6000 (   780 PWs)   bands (ev):

    -8.7859  -1.5813   3.5355   4.2848  14.2601  15.8185

     Writing all to output data dir sweeps/ORCF3_10/ORCF3_02.save/ :
     XML data file, pseudopotentials, collected wavefunctions
 
     init_run     :      2.61s CPU      0.08s WALL (       1 calls)
     electrons    :     64.90s CPU      1.24s WALL (       1 calls)

     Called by init_run:
     wfcinit      :      0.03s CPU      0.00s WALL (       1 calls)
     wfcinit:atom :      0.09s CPU      0.00s WALL (       7 calls)
     wfcinit:wfcr :      3.98s CPU      0.08s WALL (       7 calls)
     potinit      :      0.44s CPU      0.01s WALL (       1 calls)
     hinit0       :      2.13s CPU      0.06s WALL (       1 calls)

     Called by electrons:
     c_bands      :     64.89s CPU      1.24s WALL (       1 calls)
     v_of_rho     :      0.37s CPU      0.01s WALL (       1 calls)
     v_h          :      0.11s CPU      0.00s WALL (       1 calls)
     v_xc         :      0.25s CPU      0.01s WALL (       1 calls)

     Called by c_bands:
     init_us_2    :      0.21s CPU      0.00s WALL (       7 calls)
     cegterg      :     60.25s CPU      1.15s WALL (      10 calls)

     Called by sum_band:

     Called by *egterg:
     cdiaghg      :      0.71s CPU      0.01s WALL (     163 calls)
     cegterg:over :      0.37s CPU      0.01s WALL (     156 calls)
     cegterg:upda :      3.27s CPU      0.06s WALL (     156 calls)
     cegterg:last :      0.27s CPU      0.01s WALL (      93 calls)
     h_psi        :     56.16s CPU      1.07s WALL (     173 calls)
     g_psi        :      1.44s CPU      0.03s WALL (     156 calls)

     Called by h_psi:
     h_psi:calbec :      0.45s CPU      0.01s WALL (     173 calls)
     vloc_psi     :     53.49s CPU      1.02s WALL (     173 calls)
     add_vuspsi   :      0.31s CPU      0.01s WALL (     173 calls)

     General routines
     calbec       :      0.35s CPU      0.01s WALL (     173 calls)
     fft          :      0.88s CPU      0.02s WALL (      10 calls)
     fftw         :     22.14s CPU      0.43s WALL (    1244 calls)
     davcio       :      0.03s CPU      0.00s WALL (      14 calls)
 
     Parallel routines
 
     PWSCF        :   1m 9.52s CPU      1.38s WALL

 
   This run was terminated on:  11:46: 2  17Jun2025            

=------------------------------------------------------------------------------=
   JOB DONE.
=------------------------------------------------------------------------------=
