
     Program PWSCF v.7.3.1 starts on 17Jun2025 at 11:45: 6 

     This program is part of the open-source Quantum ESPRESSO suite
     for quantum simulation of materials; please cite
         "P. Giannozzi et al., J. Phys.:Condens. Matter 21 395502 (2009);
         "P. Giannozzi et al., J. Phys.:Condens. Matter 29 465901 (2017);
         "P. Giannozzi et al., J. Chem. Phys. 152 154105 (2020);
          URL http://www.quantum-espresso.org", 
     in publications or presentations arising from this work. More details at
     http://www.quantum-espresso.org/quote

     Parallel version (MPI & OpenMP), running on      96 processor cores
     Number of MPI processes:                 1
     Threads/MPI process:                    96

     MPI processes distributed on     1 nodes
     122180 MiB available memory on the printing compute node when the environment starts
 
     Waiting for input...
     Reading input from standard input
Warning: card &IONS ignored
Warning: card     ION_DYNAMICS = 'BFGS' ignored
Warning: card /&END ignored

     Current dimensions of program PWSCF are:
     Max number of different atomic species (ntypx) = 10
     Max number of k-points (npk) =  40000
     Max angular momentum in pseudopotentials (lmaxx) =  4

     Atomic positions and unit cell read from directory:
     sweeps/ORCC_9/ORCC_01.save/
 
 
     Subspace diagonalization in iterative solution of the eigenvalue problem:
     a serial algorithm will be used

 
     G-vector sticks info
     --------------------
     sticks:   dense  smooth     PW     G-vecs:    dense   smooth      PW
     Sum         163     163     59                 3309     3309     693
 
     Using Slab Decomposition
 


     bravais-lattice index     =            9
     lattice parameter (alat)  =       3.1416  a.u.
     unit-cell volume          =      34.2619 (a.u.)^3
     number of atoms/cell      =            1
     number of atomic types    =            1
     number of electrons       =         4.00
     number of Kohn-Sham states=            6
     kinetic-energy cutoff     =      80.0000  Ry
     charge density cutoff     =     320.0000  Ry
     Exchange-correlation= PBE
                           (   1   4   3   4   0   0   0)

     celldm(1)=   3.141593  celldm(2)=   1.300000  celldm(3)=   1.700000
     celldm(4)=   0.000000  celldm(5)=   0.000000  celldm(6)=   0.000000

     crystal axes: (cart. coord. in units of alat)
               a(1) = (   0.500000   0.650000   0.000000 )  
               a(2) = (  -0.500000   0.650000   0.000000 )  
               a(3) = (   0.000000   0.000000   1.700000 )  

     reciprocal axes: (cart. coord. in units 2 pi/alat)
               b(1) = (  1.000000  0.769231  0.000000 )  
               b(2) = ( -1.000000  0.769231  0.000000 )  
               b(3) = (  0.000000  0.000000  0.588235 )  


     PseudoPot. # 1 for C  read from file:
     ./C_ONCV_PBE_sr.upf
     MD5 check sum: b68b6074392897e22e8b22f1bd7aa93e
     Pseudo is Norm-conserving, Zval =  4.0
     Generated using ONCVPSP code by D. R. Hamann
     Using radial grid of 1248 points,  4 beta functions with: 
                l(1) =   0
                l(2) =   0
                l(3) =   1
                l(4) =   1

     atomic species   valence    mass     pseudopotential
     C                 4.00    10.81100     C ( 1.00)

      8 Sym. Ops., with inversion, found


                                    s                        frac. trans.

      isym =  1     identity                                     

 cryst.   s( 1) = (     1          0          0      )
                  (     0          1          0      )
                  (     0          0          1      )

 cart.    s( 1) = (  1.0000000  0.0000000  0.0000000 )
                  (  0.0000000  1.0000000  0.0000000 )
                  (  0.0000000  0.0000000  1.0000000 )


      isym =  2     180 deg rotation - cart. axis [0,0,1]        

 cryst.   s( 2) = (    -1          0          0      )
                  (     0         -1          0      )
                  (     0          0          1      )

 cart.    s( 2) = ( -1.0000000  0.0000000  0.0000000 )
                  (  0.0000000 -1.0000000  0.0000000 )
                  (  0.0000000  0.0000000  1.0000000 )


      isym =  3     180 deg rotation - cart. axis [0,1,0]        

 cryst.   s( 3) = (     0          1          0      )
                  (     1          0          0      )
                  (     0          0         -1      )

 cart.    s( 3) = ( -1.0000000  0.0000000  0.0000000 )
                  (  0.0000000  1.0000000  0.0000000 )
                  (  0.0000000  0.0000000 -1.0000000 )


      isym =  4     180 deg rotation - cart. axis [1,0,0]        

 cryst.   s( 4) = (     0         -1          0      )
                  (    -1          0          0      )
                  (     0          0         -1      )

 cart.    s( 4) = (  1.0000000  0.0000000  0.0000000 )
                  (  0.0000000 -1.0000000  0.0000000 )
                  (  0.0000000  0.0000000 -1.0000000 )


      isym =  5     inversion                                    

 cryst.   s( 5) = (    -1          0          0      )
                  (     0         -1          0      )
                  (     0          0         -1      )

 cart.    s( 5) = ( -1.0000000  0.0000000  0.0000000 )
                  (  0.0000000 -1.0000000  0.0000000 )
                  (  0.0000000  0.0000000 -1.0000000 )


      isym =  6     inv. 180 deg rotation - cart. axis [0,0,1]   

 cryst.   s( 6) = (     1          0          0      )
                  (     0          1          0      )
                  (     0          0         -1      )

 cart.    s( 6) = (  1.0000000  0.0000000  0.0000000 )
                  (  0.0000000  1.0000000  0.0000000 )
                  (  0.0000000  0.0000000 -1.0000000 )


      isym =  7     inv. 180 deg rotation - cart. axis [0,1,0]   

 cryst.   s( 7) = (     0         -1          0      )
                  (    -1          0          0      )
                  (     0          0          1      )

 cart.    s( 7) = (  1.0000000  0.0000000  0.0000000 )
                  (  0.0000000 -1.0000000  0.0000000 )
                  (  0.0000000  0.0000000  1.0000000 )


      isym =  8     inv. 180 deg rotation - cart. axis [1,0,0]   

 cryst.   s( 8) = (     0          1          0      )
                  (     1          0          0      )
                  (     0          0          1      )

 cart.    s( 8) = ( -1.0000000  0.0000000  0.0000000 )
                  (  0.0000000  1.0000000  0.0000000 )
                  (  0.0000000  0.0000000  1.0000000 )


     point group D_2h (mmm) 
     there are  8 classes
     the character table:

       E     C2    C2'   C2''  i     s_v   s_v'  s_v''
A_g    1.00  1.00  1.00  1.00  1.00  1.00  1.00  1.00
B_1g   1.00  1.00 -1.00 -1.00  1.00  1.00 -1.00 -1.00
B_2g   1.00 -1.00  1.00 -1.00  1.00 -1.00  1.00 -1.00
B_3g   1.00 -1.00 -1.00  1.00  1.00 -1.00 -1.00  1.00
A_u    1.00  1.00  1.00  1.00 -1.00 -1.00 -1.00 -1.00
B_1u   1.00  1.00 -1.00 -1.00 -1.00 -1.00  1.00  1.00
B_2u   1.00 -1.00  1.00 -1.00 -1.00  1.00 -1.00  1.00
B_3u   1.00 -1.00 -1.00  1.00 -1.00  1.00  1.00 -1.00

     the symmetry operations in each class and the name of the first element:

     E        1
          identity                                               
     C2       2
          180 deg rotation - cart. axis [0,0,1]                  
     C2'      4
          180 deg rotation - cart. axis [1,0,0]                  
     C2''     3
          180 deg rotation - cart. axis [0,1,0]                  
     i        5
          inversion                                              
     s_v      6
          inv. 180 deg rotation - cart. axis [0,0,1]             
     s_v'     8
          inv. 180 deg rotation - cart. axis [1,0,0]             
     s_v''    7
          inv. 180 deg rotation - cart. axis [0,1,0]             

   Cartesian axes

     site n.     atom                  positions (alat units)
         1        C      tau(   1) = (   0.0000000   0.0000000   0.0000000  )

   Crystallographic axes

     site n.     atom                  positions (cryst. coord.)
         1        C      tau(   1) = (  0.0000000  0.0000000  0.0000000  )

     number of k points=     9  Gaussian smearing, width (Ry)=  0.0050
                       cart. coord. in units 2pi/alat
        k(    1) = (   0.7958580   0.0000000   0.2941176), wk =   0.2222222
        k(    2) = (   0.2041420   0.7692308   0.2941176), wk =   0.2222222
        k(    3) = (   0.5000000   0.3846154   0.2941176), wk =   0.2222222
        k(    4) = (   0.5000000   0.3846154   0.0000000), wk =   0.2222222
        k(    5) = (   0.0000000   0.7692308   0.2941176), wk =   0.2222222
        k(    6) = (   0.7958580   0.0000000   0.0000000), wk =   0.2222222
        k(    7) = (   0.2041420   0.7692308   0.0000000), wk =   0.2222222
        k(    8) = (   0.0000000   0.7692308   0.0000000), wk =   0.2222222
        k(    9) = (   0.0000000   0.0000000   0.2941176), wk =   0.2222222

                       cryst. coord.
        k(    1) = (   0.3979290  -0.3979290   0.5000000), wk =   0.2222222
        k(    2) = (   0.6020710   0.3979290   0.5000000), wk =   0.2222222
        k(    3) = (   0.5000000   0.0000000   0.5000000), wk =   0.2222222
        k(    4) = (   0.5000000   0.0000000   0.0000000), wk =   0.2222222
        k(    5) = (   0.5000000   0.5000000   0.5000000), wk =   0.2222222
        k(    6) = (   0.3979290  -0.3979290   0.0000000), wk =   0.2222222
        k(    7) = (   0.6020710   0.3979290   0.0000000), wk =   0.2222222
        k(    8) = (   0.5000000   0.5000000   0.0000000), wk =   0.2222222
        k(    9) = (   0.0000000   0.0000000   0.5000000), wk =   0.2222222

     Dense  grid:     3309 G-vectors     FFT dimensions: (  15,  15,  32)

     Dynamical RAM for                 wfc:       0.04 MB

     Dynamical RAM for     wfc (w. buffer):       0.04 MB

     Dynamical RAM for           str. fact:       0.05 MB

     Dynamical RAM for           local pot:       0.00 MB

     Dynamical RAM for          nlocal pot:       0.05 MB

     Dynamical RAM for                qrad:       0.41 MB

     Dynamical RAM for          rho,v,vnew:       0.32 MB

     Dynamical RAM for           G-vectors:       0.21 MB

     Dynamical RAM for          h,s,v(r/c):       0.01 MB

     Dynamical RAM for          <psi|beta>:       0.00 MB

     Dynamical RAM for                 psi:       0.08 MB

     Dynamical RAM for                hpsi:       0.08 MB

     Dynamical RAM for      wfcinit/wfcrot:       0.08 MB

     Estimated static dynamical RAM per process >       1.46 MB

     Estimated max dynamical RAM per process >       1.61 MB

     The potential is recalculated from file :
     sweeps/ORCC_9/ORCC_01.save/charge-density

     Starting wfcs are    4 randomized atomic wfcs +    2 random wfcs

     Band Structure Calculation
     Davidson diagonalization with overlap

     Computing kpt #:     1  of     9
     total cpu time spent up to now is        0.2 secs

     Computing kpt #:     2  of     9
     total cpu time spent up to now is        0.3 secs

     Computing kpt #:     3  of     9
     total cpu time spent up to now is        0.3 secs

     Computing kpt #:     4  of     9
     total cpu time spent up to now is        0.4 secs

     Computing kpt #:     5  of     9
     total cpu time spent up to now is        0.5 secs

     Computing kpt #:     6  of     9
     total cpu time spent up to now is        0.6 secs

     Computing kpt #:     7  of     9
     total cpu time spent up to now is        0.7 secs

     Computing kpt #:     8  of     9
     total cpu time spent up to now is        0.8 secs

     Computing kpt #:     9  of     9
     total cpu time spent up to now is        0.9 secs

     ethr =  2.50E-10,  avg # of iterations = 22.6

     total cpu time spent up to now is        0.9 secs

     End of band structure calculation

          k = 0.7959 0.0000 0.2941 (   410 PWs)   bands (ev):

     4.1110   9.0954  24.5288  25.4933  40.0854  41.6409

          k = 0.2041 0.7692 0.2941 (   410 PWs)   bands (ev):

     4.1110   9.0954  24.5288  25.4933  40.0854  41.6409

          k = 0.5000 0.3846 0.2941 (   404 PWs)   bands (ev):

    -3.4695   9.7523  16.6360  28.4685  40.5297  48.1313

          k = 0.5000 0.3846 0.0000 (   416 PWs)   bands (ev):

    -3.6024   9.1700  18.2068  33.7925  39.0907  40.9159

          k = 0.0000 0.7692 0.2941 (   420 PWs)   bands (ev):

     1.9651  17.7183  21.8093  25.1363  37.8214  43.6678

          k = 0.7959 0.0000 0.0000 (   412 PWs)   bands (ev):

     4.0213   8.9708  24.6814  25.5524  44.8704  47.1186

          k = 0.2041 0.7692 0.0000 (   412 PWs)   bands (ev):

     4.0213   8.9708  24.6814  25.5524  44.8704  47.1186

          k = 0.0000 0.7692 0.0000 (   410 PWs)   bands (ev):

     1.8743  17.6635  21.1890  26.2693  42.3533  42.6091

          k = 0.0000 0.0000 0.2941 (   404 PWs)   bands (ev):

   -12.9070   1.0725  30.3506  38.2301  38.4565  42.6953

     Writing all to output data dir sweeps/ORCC_9/ORCC_01.save/ :
     XML data file, pseudopotentials, collected wavefunctions
 
     init_run     :      2.34s CPU      0.08s WALL (       1 calls)
     electrons    :     37.58s CPU      0.77s WALL (       1 calls)

     Called by init_run:
     wfcinit      :      0.04s CPU      0.00s WALL (       1 calls)
     wfcinit:atom :      0.09s CPU      0.00s WALL (       9 calls)
     wfcinit:wfcr :      2.07s CPU      0.04s WALL (       9 calls)
     potinit      :      0.18s CPU      0.00s WALL (       1 calls)
     hinit0       :      2.12s CPU      0.07s WALL (       1 calls)

     Called by electrons:
     c_bands      :     37.57s CPU      0.77s WALL (       1 calls)
     v_of_rho     :      0.15s CPU      0.00s WALL (       1 calls)
     v_h          :      0.03s CPU      0.00s WALL (       1 calls)
     v_xc         :      0.12s CPU      0.00s WALL (       1 calls)

     Called by c_bands:
     init_us_2    :      0.09s CPU      0.00s WALL (       9 calls)
     cegterg      :     35.20s CPU      0.72s WALL (      11 calls)

     Called by sum_band:

     Called by *egterg:
     cdiaghg      :      0.86s CPU      0.02s WALL (     212 calls)
     cegterg:over :      0.30s CPU      0.01s WALL (     203 calls)
     cegterg:upda :      1.63s CPU      0.03s WALL (     203 calls)
     cegterg:last :      0.22s CPU      0.00s WALL (     129 calls)
     h_psi        :     30.38s CPU      0.62s WALL (     223 calls)
     g_psi        :      1.66s CPU      0.03s WALL (     203 calls)

     Called by h_psi:
     h_psi:calbec :      0.27s CPU      0.01s WALL (     223 calls)
     vloc_psi     :     27.91s CPU      0.57s WALL (     223 calls)
     add_vuspsi   :      0.21s CPU      0.00s WALL (     223 calls)

     General routines
     calbec       :      0.16s CPU      0.00s WALL (     223 calls)
     fft          :      0.76s CPU      0.02s WALL (      10 calls)
     fftw         :     10.11s CPU      0.21s WALL (    1662 calls)
     davcio       :      0.03s CPU      0.00s WALL (      18 calls)
 
     Parallel routines
 
     PWSCF        :     41.66s CPU      0.91s WALL

 
   This run was terminated on:  11:45: 7  17Jun2025            

=------------------------------------------------------------------------------=
   JOB DONE.
=------------------------------------------------------------------------------=
