
     Program PWSCF v.7.3.1 starts on 17Jun2025 at 11:45: 9 

     This program is part of the open-source Quantum ESPRESSO suite
     for quantum simulation of materials; please cite
         "P. Giannozzi et al., J. Phys.:Condens. Matter 21 395502 (2009);
         "P. Giannozzi et al., J. Phys.:Condens. Matter 29 465901 (2017);
         "P. Giannozzi et al., J. Chem. Phys. 152 154105 (2020);
          URL http://www.quantum-espresso.org", 
     in publications or presentations arising from this work. More details at
     http://www.quantum-espresso.org/quote

     Parallel version (MPI & OpenMP), running on      96 processor cores
     Number of MPI processes:                 1
     Threads/MPI process:                    96

     MPI processes distributed on     1 nodes
     122165 MiB available memory on the printing compute node when the environment starts
 
     Waiting for input...
     Reading input from standard input
Warning: card &IONS ignored
Warning: card     ION_DYNAMICS = 'BFGS' ignored
Warning: card /&END ignored

     Current dimensions of program PWSCF are:
     Max number of different atomic species (ntypx) = 10
     Max number of k-points (npk) =  40000
     Max angular momentum in pseudopotentials (lmaxx) =  4

     Atomic positions and unit cell read from directory:
     sweeps/ORCC_9/ORCC_02.save/
 
 
     Subspace diagonalization in iterative solution of the eigenvalue problem:
     a serial algorithm will be used

 
     G-vector sticks info
     --------------------
     sticks:   dense  smooth     PW     G-vecs:    dense   smooth      PW
     Sum         651     651    193                26503    26503    4325
 
     Using Slab Decomposition
 


     bravais-lattice index     =            9
     lattice parameter (alat)  =       6.2832  a.u.
     unit-cell volume          =     274.0955 (a.u.)^3
     number of atoms/cell      =            1
     number of atomic types    =            1
     number of electrons       =         4.00
     number of Kohn-Sham states=            6
     kinetic-energy cutoff     =      80.0000  Ry
     charge density cutoff     =     320.0000  Ry
     Exchange-correlation= PBE
                           (   1   4   3   4   0   0   0)

     celldm(1)=   6.283185  celldm(2)=   1.300000  celldm(3)=   1.700000
     celldm(4)=   0.000000  celldm(5)=   0.000000  celldm(6)=   0.000000

     crystal axes: (cart. coord. in units of alat)
               a(1) = (   0.500000   0.650000   0.000000 )  
               a(2) = (  -0.500000   0.650000   0.000000 )  
               a(3) = (   0.000000   0.000000   1.700000 )  

     reciprocal axes: (cart. coord. in units 2 pi/alat)
               b(1) = (  1.000000  0.769231  0.000000 )  
               b(2) = ( -1.000000  0.769231  0.000000 )  
               b(3) = (  0.000000  0.000000  0.588235 )  


     PseudoPot. # 1 for C  read from file:
     ./C_ONCV_PBE_sr.upf
     MD5 check sum: b68b6074392897e22e8b22f1bd7aa93e
     Pseudo is Norm-conserving, Zval =  4.0
     Generated using ONCVPSP code by D. R. Hamann
     Using radial grid of 1248 points,  4 beta functions with: 
                l(1) =   0
                l(2) =   0
                l(3) =   1
                l(4) =   1

     atomic species   valence    mass     pseudopotential
     C                 4.00    10.81100     C ( 1.00)

      8 Sym. Ops., with inversion, found


                                    s                        frac. trans.

      isym =  1     identity                                     

 cryst.   s( 1) = (     1          0          0      )
                  (     0          1          0      )
                  (     0          0          1      )

 cart.    s( 1) = (  1.0000000  0.0000000  0.0000000 )
                  (  0.0000000  1.0000000  0.0000000 )
                  (  0.0000000  0.0000000  1.0000000 )


      isym =  2     180 deg rotation - cart. axis [0,0,1]        

 cryst.   s( 2) = (    -1          0          0      )
                  (     0         -1          0      )
                  (     0          0          1      )

 cart.    s( 2) = ( -1.0000000  0.0000000  0.0000000 )
                  (  0.0000000 -1.0000000  0.0000000 )
                  (  0.0000000  0.0000000  1.0000000 )


      isym =  3     180 deg rotation - cart. axis [0,1,0]        

 cryst.   s( 3) = (     0          1          0      )
                  (     1          0          0      )
                  (     0          0         -1      )

 cart.    s( 3) = ( -1.0000000  0.0000000  0.0000000 )
                  (  0.0000000  1.0000000  0.0000000 )
                  (  0.0000000  0.0000000 -1.0000000 )


      isym =  4     180 deg rotation - cart. axis [1,0,0]        

 cryst.   s( 4) = (     0         -1          0      )
                  (    -1          0          0      )
                  (     0          0         -1      )

 cart.    s( 4) = (  1.0000000  0.0000000  0.0000000 )
                  (  0.0000000 -1.0000000  0.0000000 )
                  (  0.0000000  0.0000000 -1.0000000 )


      isym =  5     inversion                                    

 cryst.   s( 5) = (    -1          0          0      )
                  (     0         -1          0      )
                  (     0          0         -1      )

 cart.    s( 5) = ( -1.0000000  0.0000000  0.0000000 )
                  (  0.0000000 -1.0000000  0.0000000 )
                  (  0.0000000  0.0000000 -1.0000000 )


      isym =  6     inv. 180 deg rotation - cart. axis [0,0,1]   

 cryst.   s( 6) = (     1          0          0      )
                  (     0          1          0      )
                  (     0          0         -1      )

 cart.    s( 6) = (  1.0000000  0.0000000  0.0000000 )
                  (  0.0000000  1.0000000  0.0000000 )
                  (  0.0000000  0.0000000 -1.0000000 )


      isym =  7     inv. 180 deg rotation - cart. axis [0,1,0]   

 cryst.   s( 7) = (     0         -1          0      )
                  (    -1          0          0      )
                  (     0          0          1      )

 cart.    s( 7) = (  1.0000000  0.0000000  0.0000000 )
                  (  0.0000000 -1.0000000  0.0000000 )
                  (  0.0000000  0.0000000  1.0000000 )


      isym =  8     inv. 180 deg rotation - cart. axis [1,0,0]   

 cryst.   s( 8) = (     0          1          0      )
                  (     1          0          0      )
                  (     0          0          1      )

 cart.    s( 8) = ( -1.0000000  0.0000000  0.0000000 )
                  (  0.0000000  1.0000000  0.0000000 )
                  (  0.0000000  0.0000000  1.0000000 )


     point group D_2h (mmm) 
     there are  8 classes
     the character table:

       E     C2    C2'   C2''  i     s_v   s_v'  s_v''
A_g    1.00  1.00  1.00  1.00  1.00  1.00  1.00  1.00
B_1g   1.00  1.00 -1.00 -1.00  1.00  1.00 -1.00 -1.00
B_2g   1.00 -1.00  1.00 -1.00  1.00 -1.00  1.00 -1.00
B_3g   1.00 -1.00 -1.00  1.00  1.00 -1.00 -1.00  1.00
A_u    1.00  1.00  1.00  1.00 -1.00 -1.00 -1.00 -1.00
B_1u   1.00  1.00 -1.00 -1.00 -1.00 -1.00  1.00  1.00
B_2u   1.00 -1.00  1.00 -1.00 -1.00  1.00 -1.00  1.00
B_3u   1.00 -1.00 -1.00  1.00 -1.00  1.00  1.00 -1.00

     the symmetry operations in each class and the name of the first element:

     E        1
          identity                                               
     C2       2
          180 deg rotation - cart. axis [0,0,1]                  
     C2'      4
          180 deg rotation - cart. axis [1,0,0]                  
     C2''     3
          180 deg rotation - cart. axis [0,1,0]                  
     i        5
          inversion                                              
     s_v      6
          inv. 180 deg rotation - cart. axis [0,0,1]             
     s_v'     8
          inv. 180 deg rotation - cart. axis [1,0,0]             
     s_v''    7
          inv. 180 deg rotation - cart. axis [0,1,0]             

   Cartesian axes

     site n.     atom                  positions (alat units)
         1        C      tau(   1) = (   0.0000000   0.0000000   0.0000000  )

   Crystallographic axes

     site n.     atom                  positions (cryst. coord.)
         1        C      tau(   1) = (  0.0000000  0.0000000  0.0000000  )

     number of k points=     9  Gaussian smearing, width (Ry)=  0.0050
                       cart. coord. in units 2pi/alat
        k(    1) = (   0.7958580   0.0000000   0.2941176), wk =   0.2222222
        k(    2) = (   0.2041420   0.7692308   0.2941176), wk =   0.2222222
        k(    3) = (   0.5000000   0.3846154   0.2941176), wk =   0.2222222
        k(    4) = (   0.5000000   0.3846154   0.0000000), wk =   0.2222222
        k(    5) = (   0.0000000   0.7692308   0.2941176), wk =   0.2222222
        k(    6) = (   0.7958580   0.0000000   0.0000000), wk =   0.2222222
        k(    7) = (   0.2041420   0.7692308   0.0000000), wk =   0.2222222
        k(    8) = (   0.0000000   0.7692308   0.0000000), wk =   0.2222222
        k(    9) = (   0.0000000   0.0000000   0.2941176), wk =   0.2222222

                       cryst. coord.
        k(    1) = (   0.3979290  -0.3979290   0.5000000), wk =   0.2222222
        k(    2) = (   0.6020710   0.3979290   0.5000000), wk =   0.2222222
        k(    3) = (   0.5000000   0.0000000   0.5000000), wk =   0.2222222
        k(    4) = (   0.5000000   0.0000000   0.0000000), wk =   0.2222222
        k(    5) = (   0.5000000   0.5000000   0.5000000), wk =   0.2222222
        k(    6) = (   0.3979290  -0.3979290   0.0000000), wk =   0.2222222
        k(    7) = (   0.6020710   0.3979290   0.0000000), wk =   0.2222222
        k(    8) = (   0.5000000   0.5000000   0.0000000), wk =   0.2222222
        k(    9) = (   0.0000000   0.0000000   0.5000000), wk =   0.2222222

     Dense  grid:    26503 G-vectors     FFT dimensions: (  30,  30,  64)

     Dynamical RAM for                 wfc:       0.30 MB

     Dynamical RAM for     wfc (w. buffer):       0.30 MB

     Dynamical RAM for           str. fact:       0.40 MB

     Dynamical RAM for           local pot:       0.00 MB

     Dynamical RAM for          nlocal pot:       0.40 MB

     Dynamical RAM for                qrad:       0.41 MB

     Dynamical RAM for          rho,v,vnew:       2.53 MB

     Dynamical RAM for           G-vectors:       1.72 MB

     Dynamical RAM for          h,s,v(r/c):       0.01 MB

     Dynamical RAM for          <psi|beta>:       0.00 MB

     Dynamical RAM for                 psi:       0.61 MB

     Dynamical RAM for                hpsi:       0.61 MB

     Dynamical RAM for      wfcinit/wfcrot:       0.61 MB

     Estimated static dynamical RAM per process >       8.78 MB

     Estimated max dynamical RAM per process >      10.00 MB

     The potential is recalculated from file :
     sweeps/ORCC_9/ORCC_02.save/charge-density

     Starting wfcs are    4 randomized atomic wfcs +    2 random wfcs

     Band Structure Calculation
     Davidson diagonalization with overlap

     Computing kpt #:     1  of     9
     total cpu time spent up to now is        0.5 secs

     Computing kpt #:     2  of     9
     total cpu time spent up to now is        0.9 secs

     Computing kpt #:     3  of     9
     total cpu time spent up to now is        1.2 secs

     Computing kpt #:     4  of     9
     total cpu time spent up to now is        1.6 secs

     Computing kpt #:     5  of     9
     total cpu time spent up to now is        1.9 secs

     Computing kpt #:     6  of     9
     total cpu time spent up to now is        2.2 secs

     Computing kpt #:     7  of     9
     total cpu time spent up to now is        2.5 secs

     Computing kpt #:     8  of     9
     total cpu time spent up to now is        2.8 secs

     Computing kpt #:     9  of     9
     total cpu time spent up to now is        3.0 secs

     ethr =  2.50E-10,  avg # of iterations = 36.4

     total cpu time spent up to now is        3.0 secs

     End of band structure calculation

          k = 0.7959 0.0000 0.2941 (  3314 PWs)   bands (ev):

   -11.6828  -6.1907  -5.0713  -3.1988   7.6495   8.6671

          k = 0.2041 0.7692 0.2941 (  3314 PWs)   bands (ev):

   -11.6828  -6.1907  -5.0713  -3.1988   7.6495   8.6671

          k = 0.5000 0.3846 0.2941 (  3308 PWs)   bands (ev):

   -12.7564  -7.0708  -3.8093  -1.9760   5.8764   8.6918

          k = 0.5000 0.3846 0.0000 (  3312 PWs)   bands (ev):

   -12.7582  -7.0757  -3.7820  -1.9763   7.0177   7.7796

          k = 0.0000 0.7692 0.2941 (  3320 PWs)   bands (ev):

   -11.4722  -6.5686  -4.6347  -3.1033   6.3178   8.1033

          k = 0.7959 0.0000 0.0000 (  3305 PWs)   bands (ev):

   -11.6840  -6.1933  -5.0739  -3.1843   7.4438   9.6451

          k = 0.2041 0.7692 0.0000 (  3305 PWs)   bands (ev):

   -11.6840  -6.1933  -5.0739  -3.1843   7.4438   9.6451

          k = 0.0000 0.7692 0.0000 (  3300 PWs)   bands (ev):

   -11.4733  -6.5714  -4.6357  -3.0894   6.2063   9.0831

          k = 0.0000 0.0000 0.2941 (  3334 PWs)   bands (ev):

   -14.7077  -5.1826  -2.3295  -1.7321   3.7484   5.7325

     Writing all to output data dir sweeps/ORCC_9/ORCC_02.save/ :
     XML data file, pseudopotentials, collected wavefunctions
 
     init_run     :      3.05s CPU      0.10s WALL (       1 calls)
     electrons    :    172.29s CPU      2.84s WALL (       1 calls)

     Called by init_run:
     wfcinit      :      0.04s CPU      0.00s WALL (       1 calls)
     wfcinit:atom :      0.16s CPU      0.00s WALL (       9 calls)
     wfcinit:wfcr :      7.68s CPU      0.13s WALL (       9 calls)
     potinit      :      0.71s CPU      0.02s WALL (       1 calls)
     hinit0       :      2.28s CPU      0.07s WALL (       1 calls)

     Called by electrons:
     c_bands      :    172.28s CPU      2.84s WALL (       1 calls)
     v_of_rho     :      0.63s CPU      0.01s WALL (       1 calls)
     v_h          :      0.08s CPU      0.00s WALL (       1 calls)
     v_xc         :      0.54s CPU      0.01s WALL (       1 calls)

     Called by c_bands:
     init_us_2    :      0.34s CPU      0.01s WALL (       9 calls)
     cegterg      :    163.67s CPU      2.70s WALL (      21 calls)

     Called by sum_band:

     Called by *egterg:
     cdiaghg      :      1.87s CPU      0.03s WALL (     337 calls)
     cegterg:over :      2.67s CPU      0.04s WALL (     328 calls)
     cegterg:upda :      4.46s CPU      0.07s WALL (     328 calls)
     cegterg:last :      2.13s CPU      0.03s WALL (     160 calls)
     h_psi        :    152.78s CPU      2.52s WALL (     358 calls)
     g_psi        :      2.63s CPU      0.04s WALL (     328 calls)

     Called by h_psi:
     h_psi:calbec :      1.77s CPU      0.03s WALL (     358 calls)
     vloc_psi     :    145.94s CPU      2.40s WALL (     358 calls)
     add_vuspsi   :      1.30s CPU      0.02s WALL (     358 calls)

     General routines
     calbec       :      1.47s CPU      0.02s WALL (     358 calls)
     fft          :      1.07s CPU      0.02s WALL (      10 calls)
     fftw         :    112.64s CPU      1.84s WALL (    2178 calls)
     davcio       :      0.10s CPU      0.00s WALL (      18 calls)
 
     Parallel routines
 
     PWSCF        :   2m58.61s CPU      3.01s WALL

 
   This run was terminated on:  11:45:12  17Jun2025            

=------------------------------------------------------------------------------=
   JOB DONE.
=------------------------------------------------------------------------------=
