
     Program PWSCF v.7.3.1 starts on 17Jun2025 at 11:45:15 

     This program is part of the open-source Quantum ESPRESSO suite
     for quantum simulation of materials; please cite
         "P. Giannozzi et al., J. Phys.:Condens. Matter 21 395502 (2009);
         "P. Giannozzi et al., J. Phys.:Condens. Matter 29 465901 (2017);
         "P. Giannozzi et al., J. Chem. Phys. 152 154105 (2020);
          URL http://www.quantum-espresso.org", 
     in publications or presentations arising from this work. More details at
     http://www.quantum-espresso.org/quote

     Parallel version (MPI & OpenMP), running on      96 processor cores
     Number of MPI processes:                 1
     Threads/MPI process:                    96

     MPI processes distributed on     1 nodes
     122146 MiB available memory on the printing compute node when the environment starts
 
     Waiting for input...
     Reading input from standard input
Warning: card &IONS ignored
Warning: card     ION_DYNAMICS = 'BFGS' ignored
Warning: card /&END ignored

     Current dimensions of program PWSCF are:
     Max number of different atomic species (ntypx) = 10
     Max number of k-points (npk) =  40000
     Max angular momentum in pseudopotentials (lmaxx) =  4

     Atomic positions and unit cell read from directory:
     sweeps/ORCC_9/ORCC_03.save/
 
 
     Subspace diagonalization in iterative solution of the eigenvalue problem:
     a serial algorithm will be used

 
     G-vector sticks info
     --------------------
     sticks:   dense  smooth     PW     G-vecs:    dense   smooth      PW
     Sum        1453    1453    417                89315    89315   13453
 
     Using Slab Decomposition
 


     bravais-lattice index     =            9
     lattice parameter (alat)  =       9.4248  a.u.
     unit-cell volume          =     925.0723 (a.u.)^3
     number of atoms/cell      =            1
     number of atomic types    =            1
     number of electrons       =         4.00
     number of Kohn-Sham states=            6
     kinetic-energy cutoff     =      80.0000  Ry
     charge density cutoff     =     320.0000  Ry
     Exchange-correlation= PBE
                           (   1   4   3   4   0   0   0)

     celldm(1)=   9.424778  celldm(2)=   1.300000  celldm(3)=   1.700000
     celldm(4)=   0.000000  celldm(5)=   0.000000  celldm(6)=   0.000000

     crystal axes: (cart. coord. in units of alat)
               a(1) = (   0.500000   0.650000   0.000000 )  
               a(2) = (  -0.500000   0.650000   0.000000 )  
               a(3) = (   0.000000   0.000000   1.700000 )  

     reciprocal axes: (cart. coord. in units 2 pi/alat)
               b(1) = (  1.000000  0.769231  0.000000 )  
               b(2) = ( -1.000000  0.769231  0.000000 )  
               b(3) = (  0.000000  0.000000  0.588235 )  


     PseudoPot. # 1 for C  read from file:
     ./C_ONCV_PBE_sr.upf
     MD5 check sum: b68b6074392897e22e8b22f1bd7aa93e
     Pseudo is Norm-conserving, Zval =  4.0
     Generated using ONCVPSP code by D. R. Hamann
     Using radial grid of 1248 points,  4 beta functions with: 
                l(1) =   0
                l(2) =   0
                l(3) =   1
                l(4) =   1

     atomic species   valence    mass     pseudopotential
     C                 4.00    10.81100     C ( 1.00)

      8 Sym. Ops., with inversion, found


                                    s                        frac. trans.

      isym =  1     identity                                     

 cryst.   s( 1) = (     1          0          0      )
                  (     0          1          0      )
                  (     0          0          1      )

 cart.    s( 1) = (  1.0000000  0.0000000  0.0000000 )
                  (  0.0000000  1.0000000  0.0000000 )
                  (  0.0000000  0.0000000  1.0000000 )


      isym =  2     180 deg rotation - cart. axis [0,0,1]        

 cryst.   s( 2) = (    -1          0          0      )
                  (     0         -1          0      )
                  (     0          0          1      )

 cart.    s( 2) = ( -1.0000000  0.0000000  0.0000000 )
                  (  0.0000000 -1.0000000  0.0000000 )
                  (  0.0000000  0.0000000  1.0000000 )


      isym =  3     180 deg rotation - cart. axis [0,1,0]        

 cryst.   s( 3) = (     0          1          0      )
                  (     1          0          0      )
                  (     0          0         -1      )

 cart.    s( 3) = ( -1.0000000  0.0000000  0.0000000 )
                  (  0.0000000  1.0000000  0.0000000 )
                  (  0.0000000  0.0000000 -1.0000000 )


      isym =  4     180 deg rotation - cart. axis [1,0,0]        

 cryst.   s( 4) = (     0         -1          0      )
                  (    -1          0          0      )
                  (     0          0         -1      )

 cart.    s( 4) = (  1.0000000  0.0000000  0.0000000 )
                  (  0.0000000 -1.0000000  0.0000000 )
                  (  0.0000000  0.0000000 -1.0000000 )


      isym =  5     inversion                                    

 cryst.   s( 5) = (    -1          0          0      )
                  (     0         -1          0      )
                  (     0          0         -1      )

 cart.    s( 5) = ( -1.0000000  0.0000000  0.0000000 )
                  (  0.0000000 -1.0000000  0.0000000 )
                  (  0.0000000  0.0000000 -1.0000000 )


      isym =  6     inv. 180 deg rotation - cart. axis [0,0,1]   

 cryst.   s( 6) = (     1          0          0      )
                  (     0          1          0      )
                  (     0          0         -1      )

 cart.    s( 6) = (  1.0000000  0.0000000  0.0000000 )
                  (  0.0000000  1.0000000  0.0000000 )
                  (  0.0000000  0.0000000 -1.0000000 )


      isym =  7     inv. 180 deg rotation - cart. axis [0,1,0]   

 cryst.   s( 7) = (     0         -1          0      )
                  (    -1          0          0      )
                  (     0          0          1      )

 cart.    s( 7) = (  1.0000000  0.0000000  0.0000000 )
                  (  0.0000000 -1.0000000  0.0000000 )
                  (  0.0000000  0.0000000  1.0000000 )


      isym =  8     inv. 180 deg rotation - cart. axis [1,0,0]   

 cryst.   s( 8) = (     0          1          0      )
                  (     1          0          0      )
                  (     0          0          1      )

 cart.    s( 8) = ( -1.0000000  0.0000000  0.0000000 )
                  (  0.0000000  1.0000000  0.0000000 )
                  (  0.0000000  0.0000000  1.0000000 )


     point group D_2h (mmm) 
     there are  8 classes
     the character table:

       E     C2    C2'   C2''  i     s_v   s_v'  s_v''
A_g    1.00  1.00  1.00  1.00  1.00  1.00  1.00  1.00
B_1g   1.00  1.00 -1.00 -1.00  1.00  1.00 -1.00 -1.00
B_2g   1.00 -1.00  1.00 -1.00  1.00 -1.00  1.00 -1.00
B_3g   1.00 -1.00 -1.00  1.00  1.00 -1.00 -1.00  1.00
A_u    1.00  1.00  1.00  1.00 -1.00 -1.00 -1.00 -1.00
B_1u   1.00  1.00 -1.00 -1.00 -1.00 -1.00  1.00  1.00
B_2u   1.00 -1.00  1.00 -1.00 -1.00  1.00 -1.00  1.00
B_3u   1.00 -1.00 -1.00  1.00 -1.00  1.00  1.00 -1.00

     the symmetry operations in each class and the name of the first element:

     E        1
          identity                                               
     C2       2
          180 deg rotation - cart. axis [0,0,1]                  
     C2'      4
          180 deg rotation - cart. axis [1,0,0]                  
     C2''     3
          180 deg rotation - cart. axis [0,1,0]                  
     i        5
          inversion                                              
     s_v      6
          inv. 180 deg rotation - cart. axis [0,0,1]             
     s_v'     8
          inv. 180 deg rotation - cart. axis [1,0,0]             
     s_v''    7
          inv. 180 deg rotation - cart. axis [0,1,0]             

   Cartesian axes

     site n.     atom                  positions (alat units)
         1        C      tau(   1) = (   0.0000000   0.0000000   0.0000000  )

   Crystallographic axes

     site n.     atom                  positions (cryst. coord.)
         1        C      tau(   1) = (  0.0000000  0.0000000  0.0000000  )

     number of k points=     9  Gaussian smearing, width (Ry)=  0.0050
                       cart. coord. in units 2pi/alat
        k(    1) = (   0.7958580   0.0000000   0.2941176), wk =   0.2222222
        k(    2) = (   0.2041420   0.7692308   0.2941176), wk =   0.2222222
        k(    3) = (   0.5000000   0.3846154   0.2941176), wk =   0.2222222
        k(    4) = (   0.5000000   0.3846154   0.0000000), wk =   0.2222222
        k(    5) = (   0.0000000   0.7692308   0.2941176), wk =   0.2222222
        k(    6) = (   0.7958580   0.0000000   0.0000000), wk =   0.2222222
        k(    7) = (   0.2041420   0.7692308   0.0000000), wk =   0.2222222
        k(    8) = (   0.0000000   0.7692308   0.0000000), wk =   0.2222222
        k(    9) = (   0.0000000   0.0000000   0.2941176), wk =   0.2222222

                       cryst. coord.
        k(    1) = (   0.3979290  -0.3979290   0.5000000), wk =   0.2222222
        k(    2) = (   0.6020710   0.3979290   0.5000000), wk =   0.2222222
        k(    3) = (   0.5000000   0.0000000   0.5000000), wk =   0.2222222
        k(    4) = (   0.5000000   0.0000000   0.0000000), wk =   0.2222222
        k(    5) = (   0.5000000   0.5000000   0.5000000), wk =   0.2222222
        k(    6) = (   0.3979290  -0.3979290   0.0000000), wk =   0.2222222
        k(    7) = (   0.6020710   0.3979290   0.0000000), wk =   0.2222222
        k(    8) = (   0.5000000   0.5000000   0.0000000), wk =   0.2222222
        k(    9) = (   0.0000000   0.0000000   0.5000000), wk =   0.2222222

     Dense  grid:    89315 G-vectors     FFT dimensions: (  45,  45,  96)

     Dynamical RAM for                 wfc:       1.02 MB

     Dynamical RAM for     wfc (w. buffer):       1.02 MB

     Dynamical RAM for           str. fact:       1.36 MB

     Dynamical RAM for           local pot:       0.00 MB

     Dynamical RAM for          nlocal pot:       1.36 MB

     Dynamical RAM for                qrad:       0.41 MB

     Dynamical RAM for          rho,v,vnew:       8.54 MB

     Dynamical RAM for           G-vectors:       5.79 MB

     Dynamical RAM for          h,s,v(r/c):       0.01 MB

     Dynamical RAM for          <psi|beta>:       0.00 MB

     Dynamical RAM for                 psi:       2.05 MB

     Dynamical RAM for                hpsi:       2.05 MB

     Dynamical RAM for      wfcinit/wfcrot:       2.05 MB

     Estimated static dynamical RAM per process >      28.63 MB

     Estimated max dynamical RAM per process >      32.73 MB

     The potential is recalculated from file :
     sweeps/ORCC_9/ORCC_03.save/charge-density

     Starting wfcs are    4 randomized atomic wfcs +    2 random wfcs

     Band Structure Calculation
     Davidson diagonalization with overlap

     Computing kpt #:     1  of     9
     total cpu time spent up to now is        1.4 secs

     Computing kpt #:     2  of     9
     total cpu time spent up to now is        2.6 secs

     Computing kpt #:     3  of     9
     total cpu time spent up to now is        3.8 secs

     Computing kpt #:     4  of     9
     total cpu time spent up to now is        4.8 secs

     Computing kpt #:     5  of     9
     total cpu time spent up to now is        5.8 secs

     Computing kpt #:     6  of     9
     total cpu time spent up to now is        7.0 secs

     Computing kpt #:     7  of     9
     total cpu time spent up to now is        8.2 secs

     Computing kpt #:     8  of     9
     total cpu time spent up to now is        9.3 secs

     Computing kpt #:     9  of     9
     total cpu time spent up to now is        9.8 secs

     ethr =  2.50E-10,  avg # of iterations = 52.0

     total cpu time spent up to now is        9.8 secs

     End of band structure calculation

          k = 0.7959 0.0000 0.2941 ( 11230 PWs)   bands (ev):

   -13.3743  -5.3741  -5.2356  -4.6067   2.9805   3.6216

          k = 0.2041 0.7692 0.2941 ( 11230 PWs)   bands (ev):

   -13.3743  -5.3741  -5.2356  -4.6067   2.9805   3.6216

          k = 0.5000 0.3846 0.2941 ( 11152 PWs)   bands (ev):

   -13.4556  -5.5435  -4.6981  -4.6869   2.3702   2.7377

          k = 0.5000 0.3846 0.0000 ( 11156 PWs)   bands (ev):

   -13.4556  -5.5438  -4.6965  -4.6869   2.3045   2.3241

          k = 0.0000 0.7692 0.2941 ( 11228 PWs)   bands (ev):

   -13.3574  -5.4557  -5.1940  -4.5903   2.8445   3.3709

          k = 0.7959 0.0000 0.0000 ( 11216 PWs)   bands (ev):

   -13.3743  -5.3743  -5.2357  -4.6058   2.8462   3.6873

          k = 0.2041 0.7692 0.0000 ( 11216 PWs)   bands (ev):

   -13.3743  -5.3743  -5.2357  -4.6058   2.8462   3.6873

          k = 0.0000 0.7692 0.0000 ( 11212 PWs)   bands (ev):

   -13.3574  -5.4559  -5.1940  -4.5894   2.7121   3.5264

          k = 0.0000 0.0000 0.2941 ( 11106 PWs)   bands (ev):

   -13.5913  -4.8859  -4.7998  -4.6116   0.3027   0.6325

     Writing all to output data dir sweeps/ORCC_9/ORCC_03.save/ :
     XML data file, pseudopotentials, collected wavefunctions
 
     init_run     :      5.66s CPU      0.17s WALL (       1 calls)
     electrons    :    805.15s CPU      9.60s WALL (       1 calls)

     Called by init_run:
     wfcinit      :      0.04s CPU      0.00s WALL (       1 calls)
     wfcinit:atom :      0.47s CPU      0.01s WALL (       9 calls)
     wfcinit:wfcr :     27.81s CPU      0.34s WALL (       9 calls)
     potinit      :      2.67s CPU      0.05s WALL (       1 calls)
     hinit0       :      2.91s CPU      0.08s WALL (       1 calls)

     Called by electrons:
     c_bands      :    805.14s CPU      9.60s WALL (       1 calls)
     v_of_rho     :      2.34s CPU      0.04s WALL (       1 calls)
     v_h          :      0.20s CPU      0.00s WALL (       1 calls)
     v_xc         :      2.14s CPU      0.04s WALL (       1 calls)

     Called by c_bands:
     init_us_2    :      1.08s CPU      0.01s WALL (       9 calls)
     cegterg      :    774.31s CPU      9.22s WALL (      29 calls)

     Called by sum_band:

     Called by *egterg:
     cdiaghg      :      3.64s CPU      0.04s WALL (     477 calls)
     cegterg:over :     17.04s CPU      0.20s WALL (     468 calls)
     cegterg:upda :     15.07s CPU      0.18s WALL (     468 calls)
     cegterg:last :     13.72s CPU      0.16s WALL (     220 calls)
     h_psi        :    740.08s CPU      8.80s WALL (     506 calls)
     g_psi        :      1.90s CPU      0.03s WALL (     468 calls)

     Called by h_psi:
     h_psi:calbec :     10.95s CPU      0.13s WALL (     506 calls)
     vloc_psi     :    714.25s CPU      8.51s WALL (     506 calls)
     add_vuspsi   :      7.75s CPU      0.09s WALL (     506 calls)

     General routines
     calbec       :      9.91s CPU      0.12s WALL (     506 calls)
     fft          :      1.97s CPU      0.04s WALL (      10 calls)
     fftw         :    660.84s CPU      7.80s WALL (    2880 calls)
     davcio       :      0.42s CPU      0.00s WALL (      18 calls)
 
     Parallel routines
 
     PWSCF        :  13m36.76s CPU      9.86s WALL

 
   This run was terminated on:  11:45:25  17Jun2025            

=------------------------------------------------------------------------------=
   JOB DONE.
=------------------------------------------------------------------------------=
