
     Program PWSCF v.7.3.1 starts on 17Jun2025 at 11:46:18 

     This program is part of the open-source Quantum ESPRESSO suite
     for quantum simulation of materials; please cite
         "P. Giannozzi et al., J. Phys.:Condens. Matter 21 395502 (2009);
         "P. Giannozzi et al., J. Phys.:Condens. Matter 29 465901 (2017);
         "P. Giannozzi et al., J. Chem. Phys. 152 154105 (2020);
          URL http://www.quantum-espresso.org", 
     in publications or presentations arising from this work. More details at
     http://www.quantum-espresso.org/quote

     Parallel version (MPI & OpenMP), running on      96 processor cores
     Number of MPI processes:                 1
     Threads/MPI process:                    96

     MPI processes distributed on     1 nodes
     122081 MiB available memory on the printing compute node when the environment starts
 
     Waiting for input...
     Reading input from standard input
Warning: card &IONS ignored
Warning: card     ION_DYNAMICS = 'BFGS' ignored
Warning: card /&END ignored

     Current dimensions of program PWSCF are:
     Max number of different atomic species (ntypx) = 10
     Max number of k-points (npk) =  40000
     Max angular momentum in pseudopotentials (lmaxx) =  4

     Atomic positions and unit cell read from directory:
     sweeps/ORCI_11/ORCI_02.save/
 
 
     Subspace diagonalization in iterative solution of the eigenvalue problem:
     a serial algorithm will be used

 
     G-vector sticks info
     --------------------
     sticks:   dense  smooth     PW     G-vecs:    dense   smooth      PW
     Sum        1075    1075    317                26453    26453    4153
 
     Using Slab Decomposition
 


     bravais-lattice index     =           11
     lattice parameter (alat)  =       6.2832  a.u.
     unit-cell volume          =     274.0955 (a.u.)^3
     number of atoms/cell      =            1
     number of atomic types    =            1
     number of electrons       =         4.00
     number of Kohn-Sham states=            6
     kinetic-energy cutoff     =      80.0000  Ry
     charge density cutoff     =     320.0000  Ry
     Exchange-correlation= PBE
                           (   1   4   3   4   0   0   0)

     celldm(1)=   6.283185  celldm(2)=   1.300000  celldm(3)=   1.700000
     celldm(4)=   0.000000  celldm(5)=   0.000000  celldm(6)=   0.000000

     crystal axes: (cart. coord. in units of alat)
               a(1) = (   0.500000   0.650000   0.850000 )  
               a(2) = (  -0.500000   0.650000   0.850000 )  
               a(3) = (  -0.500000  -0.650000   0.850000 )  

     reciprocal axes: (cart. coord. in units 2 pi/alat)
               b(1) = (  1.000000  0.000000  0.588235 )  
               b(2) = ( -1.000000  0.769231  0.000000 )  
               b(3) = (  0.000000 -0.769231  0.588235 )  


     PseudoPot. # 1 for C  read from file:
     ./C_ONCV_PBE_sr.upf
     MD5 check sum: b68b6074392897e22e8b22f1bd7aa93e
     Pseudo is Norm-conserving, Zval =  4.0
     Generated using ONCVPSP code by D. R. Hamann
     Using radial grid of 1248 points,  4 beta functions with: 
                l(1) =   0
                l(2) =   0
                l(3) =   1
                l(4) =   1

     atomic species   valence    mass     pseudopotential
     C                 4.00    10.81100     C ( 1.00)

      8 Sym. Ops., with inversion, found


                                    s                        frac. trans.

      isym =  1     identity                                     

 cryst.   s( 1) = (     1          0          0      )
                  (     0          1          0      )
                  (     0          0          1      )

 cart.    s( 1) = (  1.0000000  0.0000000  0.0000000 )
                  (  0.0000000  1.0000000  0.0000000 )
                  (  0.0000000  0.0000000  1.0000000 )


      isym =  2     180 deg rotation - cart. axis [0,0,1]        

 cryst.   s( 2) = (     0          0          1      )
                  (     1         -1          1      )
                  (     1          0          0      )

 cart.    s( 2) = ( -1.0000000  0.0000000  0.0000000 )
                  (  0.0000000 -1.0000000  0.0000000 )
                  (  0.0000000  0.0000000  1.0000000 )


      isym =  3     180 deg rotation - cart. axis [0,1,0]        

 cryst.   s( 3) = (    -1          1         -1      )
                  (     0          0         -1      )
                  (     0         -1          0      )

 cart.    s( 3) = ( -1.0000000  0.0000000  0.0000000 )
                  (  0.0000000  1.0000000  0.0000000 )
                  (  0.0000000  0.0000000 -1.0000000 )


      isym =  4     180 deg rotation - cart. axis [1,0,0]        

 cryst.   s( 4) = (     0         -1          0      )
                  (    -1          0          0      )
                  (    -1          1         -1      )

 cart.    s( 4) = (  1.0000000  0.0000000  0.0000000 )
                  (  0.0000000 -1.0000000  0.0000000 )
                  (  0.0000000  0.0000000 -1.0000000 )


      isym =  5     inversion                                    

 cryst.   s( 5) = (    -1          0          0      )
                  (     0         -1          0      )
                  (     0          0         -1      )

 cart.    s( 5) = ( -1.0000000  0.0000000  0.0000000 )
                  (  0.0000000 -1.0000000  0.0000000 )
                  (  0.0000000  0.0000000 -1.0000000 )


      isym =  6     inv. 180 deg rotation - cart. axis [0,0,1]   

 cryst.   s( 6) = (     0          0         -1      )
                  (    -1          1         -1      )
                  (    -1          0          0      )

 cart.    s( 6) = (  1.0000000  0.0000000  0.0000000 )
                  (  0.0000000  1.0000000  0.0000000 )
                  (  0.0000000  0.0000000 -1.0000000 )


      isym =  7     inv. 180 deg rotation - cart. axis [0,1,0]   

 cryst.   s( 7) = (     1         -1          1      )
                  (     0          0          1      )
                  (     0          1          0      )

 cart.    s( 7) = (  1.0000000  0.0000000  0.0000000 )
                  (  0.0000000 -1.0000000  0.0000000 )
                  (  0.0000000  0.0000000  1.0000000 )


      isym =  8     inv. 180 deg rotation - cart. axis [1,0,0]   

 cryst.   s( 8) = (     0          1          0      )
                  (     1          0          0      )
                  (     1         -1          1      )

 cart.    s( 8) = ( -1.0000000  0.0000000  0.0000000 )
                  (  0.0000000  1.0000000  0.0000000 )
                  (  0.0000000  0.0000000  1.0000000 )


     point group D_2h (mmm) 
     there are  8 classes
     the character table:

       E     C2    C2'   C2''  i     s_v   s_v'  s_v''
A_g    1.00  1.00  1.00  1.00  1.00  1.00  1.00  1.00
B_1g   1.00  1.00 -1.00 -1.00  1.00  1.00 -1.00 -1.00
B_2g   1.00 -1.00  1.00 -1.00  1.00 -1.00  1.00 -1.00
B_3g   1.00 -1.00 -1.00  1.00  1.00 -1.00 -1.00  1.00
A_u    1.00  1.00  1.00  1.00 -1.00 -1.00 -1.00 -1.00
B_1u   1.00  1.00 -1.00 -1.00 -1.00 -1.00  1.00  1.00
B_2u   1.00 -1.00  1.00 -1.00 -1.00  1.00 -1.00  1.00
B_3u   1.00 -1.00 -1.00  1.00 -1.00  1.00  1.00 -1.00

     the symmetry operations in each class and the name of the first element:

     E        1
          identity                                               
     C2       2
          180 deg rotation - cart. axis [0,0,1]                  
     C2'      4
          180 deg rotation - cart. axis [1,0,0]                  
     C2''     3
          180 deg rotation - cart. axis [0,1,0]                  
     i        5
          inversion                                              
     s_v      6
          inv. 180 deg rotation - cart. axis [0,0,1]             
     s_v'     8
          inv. 180 deg rotation - cart. axis [1,0,0]             
     s_v''    7
          inv. 180 deg rotation - cart. axis [0,1,0]             

   Cartesian axes

     site n.     atom                  positions (alat units)
         1        C      tau(   1) = (   0.0000000   0.0000000   0.0000000  )

   Crystallographic axes

     site n.     atom                  positions (cryst. coord.)
         1        C      tau(   1) = (  0.0000000  0.0000000  0.0000000  )

     number of k points=    12  Gaussian smearing, width (Ry)=  0.0050
                       cart. coord. in units 2pi/alat
        k(    1) = (   0.6730104   0.1597019   0.0000000), wk =   0.1666667
        k(    2) = (   0.3269896   0.6095289   0.0000000), wk =   0.1666667
        k(    3) = (   0.3269896   0.1597019   0.5882353), wk =   0.1666667
        k(    4) = (   0.5000000   0.0000000   0.2941176), wk =   0.1666667
        k(    5) = (   0.0000000   0.3846154   0.2941176), wk =   0.1666667
        k(    6) = (   0.5000000   0.3846154   0.0000000), wk =   0.1666667
        k(    7) = (   0.5000000   0.3846154   0.2941176), wk =   0.1666667
        k(    8) = (   0.6730104   0.0000000   0.0000000), wk =   0.1666667
        k(    9) = (   0.3269896   0.0000000   0.5882353), wk =   0.1666667
        k(   10) = (   0.0000000   0.6095289   0.0000000), wk =   0.1666667
        k(   11) = (   0.0000000   0.1597019   0.5882353), wk =   0.1666667
        k(   12) = (   0.0000000   0.0000000   0.5882353), wk =   0.1666667

                       cryst. coord.
        k(    1) = (   0.4403114  -0.2326990  -0.4403114), wk =   0.1666667
        k(    2) = (   0.5596886   0.2326990  -0.5596886), wk =   0.1666667
        k(    3) = (   0.7673010   0.4403114   0.2326990), wk =   0.1666667
        k(    4) = (   0.5000000   0.0000000   0.0000000), wk =   0.1666667
        k(    5) = (   0.5000000   0.5000000   0.0000000), wk =   0.1666667
        k(    6) = (   0.5000000   0.0000000  -0.5000000), wk =   0.1666667
        k(    7) = (   0.7500000   0.2500000  -0.2500000), wk =   0.1666667
        k(    8) = (   0.3365052  -0.3365052  -0.3365052), wk =   0.1666667
        k(    9) = (   0.6634948   0.3365052   0.3365052), wk =   0.1666667
        k(   10) = (   0.3961938   0.3961938  -0.3961938), wk =   0.1666667
        k(   11) = (   0.6038062   0.6038062   0.3961938), wk =   0.1666667
        k(   12) = (   0.5000000   0.5000000   0.5000000), wk =   0.1666667

     Dense  grid:    26453 G-vectors     FFT dimensions: (  45,  45,  45)

     Dynamical RAM for                 wfc:       0.30 MB

     Dynamical RAM for     wfc (w. buffer):       0.30 MB

     Dynamical RAM for           str. fact:       0.40 MB

     Dynamical RAM for           local pot:       0.00 MB

     Dynamical RAM for          nlocal pot:       0.40 MB

     Dynamical RAM for                qrad:       0.41 MB

     Dynamical RAM for          rho,v,vnew:       3.30 MB

     Dynamical RAM for           G-vectors:       1.72 MB

     Dynamical RAM for          h,s,v(r/c):       0.01 MB

     Dynamical RAM for          <psi|beta>:       0.00 MB

     Dynamical RAM for                 psi:       0.61 MB

     Dynamical RAM for                hpsi:       0.61 MB

     Dynamical RAM for      wfcinit/wfcrot:       0.61 MB

     Estimated static dynamical RAM per process >      10.82 MB

     Estimated max dynamical RAM per process >      12.04 MB

     The potential is recalculated from file :
     sweeps/ORCI_11/ORCI_02.save/charge-density

     Starting wfcs are    4 randomized atomic wfcs +    2 random wfcs

     Band Structure Calculation
     Davidson diagonalization with overlap

     Computing kpt #:     1  of    12
     total cpu time spent up to now is        0.9 secs

     Computing kpt #:     2  of    12
     total cpu time spent up to now is        1.6 secs

     Computing kpt #:     3  of    12
     total cpu time spent up to now is        2.4 secs

     Computing kpt #:     4  of    12
     total cpu time spent up to now is        2.9 secs

     Computing kpt #:     5  of    12
     total cpu time spent up to now is        3.4 secs

     Computing kpt #:     6  of    12
     total cpu time spent up to now is        3.9 secs

     Computing kpt #:     7  of    12
     total cpu time spent up to now is        4.3 secs

     Computing kpt #:     8  of    12
     total cpu time spent up to now is        4.6 secs

     Computing kpt #:     9  of    12
     total cpu time spent up to now is        5.1 secs

     Computing kpt #:    10  of    12
     total cpu time spent up to now is        5.5 secs

     Computing kpt #:    11  of    12
     total cpu time spent up to now is        5.9 secs

     Computing kpt #:    12  of    12
     total cpu time spent up to now is        6.4 secs

     ethr =  2.50E-10,  avg # of iterations = 35.1

     total cpu time spent up to now is        6.4 secs

     End of band structure calculation

          k = 0.6730 0.1597 0.0000 (  3311 PWs)   bands (ev):

   -10.3279  -2.7804  -2.3583  -1.9366   6.8156   8.1359

          k = 0.3270 0.6095 0.0000 (  3311 PWs)   bands (ev):

   -10.3279  -2.7804  -2.3583  -1.9366   6.8156   8.1359

          k = 0.3270 0.1597 0.5882 (  3311 PWs)   bands (ev):

   -10.3279  -2.7804  -2.3583  -1.9366   6.8156   8.1359

          k = 0.5000 0.0000 0.2941 (  3318 PWs)   bands (ev):

   -10.3234  -3.4348  -1.6913  -1.5300   6.4017   8.0987

          k = 0.0000 0.3846 0.2941 (  3292 PWs)   bands (ev):

   -10.8214  -3.2219  -1.5485  -0.9514   6.5088   6.8135

          k = 0.5000 0.3846 0.0000 (  3312 PWs)   bands (ev):

   -10.2641  -3.2642  -1.8449  -1.8084   5.9985   7.8817

          k = 0.5000 0.3846 0.2941 (  3308 PWs)   bands (ev):

   -10.2595  -3.1345  -2.0040  -1.9255   6.7289   7.8795

          k = 0.6730 0.0000 0.0000 (  3313 PWs)   bands (ev):

   -10.3159  -2.7848  -2.4632  -1.8353   6.9623   8.2359

          k = 0.3270 0.0000 0.5882 (  3313 PWs)   bands (ev):

   -10.3159  -2.7848  -2.4632  -1.8353   6.9623   8.2359

          k = 0.0000 0.6095 0.0000 (  3306 PWs)   bands (ev):

   -10.6243  -2.9247  -2.4345  -1.0801   5.9481   8.4257

          k = 0.0000 0.1597 0.5882 (  3306 PWs)   bands (ev):

   -10.6243  -2.9247  -2.4345  -1.0801   5.9481   8.4257

          k = 0.0000 0.0000 0.5882 (  3264 PWs)   bands (ev):

   -10.5879  -3.0790  -2.2561  -1.1175   5.4755   8.5128

     Writing all to output data dir sweeps/ORCI_11/ORCI_02.save/ :
     XML data file, pseudopotentials, collected wavefunctions
 
     init_run     :      4.53s CPU      0.14s WALL (       1 calls)
     electrons    :    430.45s CPU      6.22s WALL (       1 calls)

     Called by init_run:
     wfcinit      :      0.04s CPU      0.00s WALL (       1 calls)
     wfcinit:atom :      0.33s CPU      0.01s WALL (      12 calls)
     wfcinit:wfcr :     21.00s CPU      0.31s WALL (      12 calls)
     potinit      :      2.04s CPU      0.04s WALL (       1 calls)
     hinit0       :      2.45s CPU      0.08s WALL (       1 calls)

     Called by electrons:
     c_bands      :    430.44s CPU      6.22s WALL (       1 calls)
     v_of_rho     :      1.81s CPU      0.04s WALL (       1 calls)
     v_h          :      0.50s CPU      0.01s WALL (       1 calls)
     v_xc         :      1.31s CPU      0.03s WALL (       1 calls)

     Called by c_bands:
     init_us_2    :      0.60s CPU      0.01s WALL (      12 calls)
     cegterg      :    407.51s CPU      5.87s WALL (      27 calls)

     Called by sum_band:

     Called by *egterg:
     cdiaghg      :      3.03s CPU      0.04s WALL (     433 calls)
     cegterg:over :      4.62s CPU      0.06s WALL (     421 calls)
     cegterg:upda :     10.12s CPU      0.16s WALL (     421 calls)
     cegterg:last :      3.50s CPU      0.05s WALL (     211 calls)
     h_psi        :    395.17s CPU      5.68s WALL (     460 calls)
     g_psi        :      4.11s CPU      0.07s WALL (     421 calls)

     Called by h_psi:
     h_psi:calbec :      3.78s CPU      0.05s WALL (     460 calls)
     vloc_psi     :    382.39s CPU      5.51s WALL (     460 calls)
     add_vuspsi   :      2.18s CPU      0.03s WALL (     460 calls)

     General routines
     calbec       :      2.86s CPU      0.04s WALL (     460 calls)
     fft          :      1.62s CPU      0.03s WALL (      10 calls)
     fftw         :    273.97s CPU      3.61s WALL (    2800 calls)
     davcio       :      0.19s CPU      0.00s WALL (      24 calls)
 
     Parallel routines
 
     PWSCF        :   7m19.17s CPU      6.42s WALL

 
   This run was terminated on:  11:46:25  17Jun2025            

=------------------------------------------------------------------------------=
   JOB DONE.
=------------------------------------------------------------------------------=
