
     Program PWSCF v.7.3.1 starts on 17Jun2025 at 11:40:47 

     This program is part of the open-source Quantum ESPRESSO suite
     for quantum simulation of materials; please cite
         "P. Giannozzi et al., J. Phys.:Condens. Matter 21 395502 (2009);
         "P. Giannozzi et al., J. Phys.:Condens. Matter 29 465901 (2017);
         "P. Giannozzi et al., J. Chem. Phys. 152 154105 (2020);
          URL http://www.quantum-espresso.org", 
     in publications or presentations arising from this work. More details at
     http://www.quantum-espresso.org/quote

     Parallel version (MPI & OpenMP), running on      96 processor cores
     Number of MPI processes:                 1
     Threads/MPI process:                    96

     MPI processes distributed on     1 nodes
     122461 MiB available memory on the printing compute node when the environment starts
 
     Waiting for input...
     Reading input from standard input

     Current dimensions of program PWSCF are:
     Max number of different atomic species (ntypx) = 10
     Max number of k-points (npk) =  40000
     Max angular momentum in pseudopotentials (lmaxx) =  4
 
     Subspace diagonalization in iterative solution of the eigenvalue problem:
     a serial algorithm will be used

 
     G-vector sticks info
     --------------------
     sticks:   dense  smooth     PW     G-vecs:    dense   smooth      PW
     Sum        1945    1945    547               140063   140063   20487
 
     Using Slab Decomposition
 


     bravais-lattice index     =            4
     lattice parameter (alat)  =       9.4248  a.u.
     unit-cell volume          =    1450.0201 (a.u.)^3
     number of atoms/cell      =            1
     number of atomic types    =            1
     number of electrons       =         4.00
     number of Kohn-Sham states=            6
     kinetic-energy cutoff     =      80.0000  Ry
     charge density cutoff     =     320.0000  Ry
     scf convergence threshold =      1.0E-08
     mixing beta               =       0.7000
     number of iterations used =            8  plain     mixing
     Exchange-correlation= PBE
                           (   1   4   3   4   0   0   0)

     celldm(1)=   9.424778  celldm(2)=   0.000000  celldm(3)=   2.000000
     celldm(4)=   0.000000  celldm(5)=   0.000000  celldm(6)=   0.000000

     crystal axes: (cart. coord. in units of alat)
               a(1) = (   1.000000   0.000000   0.000000 )  
               a(2) = (  -0.500000   0.866025   0.000000 )  
               a(3) = (   0.000000   0.000000   2.000000 )  

     reciprocal axes: (cart. coord. in units 2 pi/alat)
               b(1) = (  1.000000  0.577350  0.000000 )  
               b(2) = (  0.000000  1.154701  0.000000 )  
               b(3) = (  0.000000  0.000000  0.500000 )  


     PseudoPot. # 1 for C  read from file:
     ./C_ONCV_PBE_sr.upf
     MD5 check sum: b68b6074392897e22e8b22f1bd7aa93e
     Pseudo is Norm-conserving, Zval =  4.0
     Generated using ONCVPSP code by D. R. Hamann
     Using radial grid of 1248 points,  4 beta functions with: 
                l(1) =   0
                l(2) =   0
                l(3) =   1
                l(4) =   1

     atomic species   valence    mass     pseudopotential
     C                 4.00    10.81100     C ( 1.00)

     24 Sym. Ops., with inversion, found


                                    s                        frac. trans.

      isym =  1     identity                                     

 cryst.   s( 1) = (     1          0          0      )
                  (     0          1          0      )
                  (     0          0          1      )

 cart.    s( 1) = (  1.0000000  0.0000000  0.0000000 )
                  (  0.0000000  1.0000000  0.0000000 )
                  (  0.0000000  0.0000000  1.0000000 )


      isym =  2     180 deg rotation - cart. axis [0,0,1]        

 cryst.   s( 2) = (    -1          0          0      )
                  (     0         -1          0      )
                  (     0          0          1      )

 cart.    s( 2) = ( -1.0000000  0.0000000  0.0000000 )
                  (  0.0000000 -1.0000000  0.0000000 )
                  (  0.0000000  0.0000000  1.0000000 )


      isym =  3     180 deg rotation - cart. axis [0,1,0]        

 cryst.   s( 3) = (    -1          0          0      )
                  (     1          1          0      )
                  (     0          0         -1      )

 cart.    s( 3) = ( -1.0000000  0.0000000  0.0000000 )
                  (  0.0000000  1.0000000  0.0000000 )
                  (  0.0000000  0.0000000 -1.0000000 )


      isym =  4     180 deg rotation - cart. axis [1,0,0]        

 cryst.   s( 4) = (     1          0          0      )
                  (    -1         -1          0      )
                  (     0          0         -1      )

 cart.    s( 4) = (  1.0000000  0.0000000  0.0000000 )
                  (  0.0000000 -1.0000000  0.0000000 )
                  (  0.0000000  0.0000000 -1.0000000 )


      isym =  5      60 deg rotation - cryst. axis [0,0,1]       

 cryst.   s( 5) = (     1          1          0      )
                  (    -1          0          0      )
                  (     0          0          1      )

 cart.    s( 5) = (  0.5000000 -0.8660254  0.0000000 )
                  (  0.8660254  0.5000000  0.0000000 )
                  (  0.0000000  0.0000000  1.0000000 )


      isym =  6      60 deg rotation - cryst. axis [0,0,-1]      

 cryst.   s( 6) = (     0         -1          0      )
                  (     1          1          0      )
                  (     0          0          1      )

 cart.    s( 6) = (  0.5000000  0.8660254  0.0000000 )
                  ( -0.8660254  0.5000000  0.0000000 )
                  (  0.0000000  0.0000000  1.0000000 )


      isym =  7     120 deg rotation - cryst. axis [0,0,1]       

 cryst.   s( 7) = (     0          1          0      )
                  (    -1         -1          0      )
                  (     0          0          1      )

 cart.    s( 7) = ( -0.5000000 -0.8660254  0.0000000 )
                  (  0.8660254 -0.5000000  0.0000000 )
                  (  0.0000000  0.0000000  1.0000000 )


      isym =  8     120 deg rotation - cryst. axis [0,0,-1]      

 cryst.   s( 8) = (    -1         -1          0      )
                  (     1          0          0      )
                  (     0          0          1      )

 cart.    s( 8) = ( -0.5000000  0.8660254  0.0000000 )
                  ( -0.8660254 -0.5000000  0.0000000 )
                  (  0.0000000  0.0000000  1.0000000 )


      isym =  9     180 deg rotation - cryst. axis [1,-1,0]      

 cryst.   s( 9) = (     0         -1          0      )
                  (    -1          0          0      )
                  (     0          0         -1      )

 cart.    s( 9) = (  0.5000000 -0.8660254  0.0000000 )
                  ( -0.8660254 -0.5000000  0.0000000 )
                  (  0.0000000  0.0000000 -1.0000000 )


      isym = 10     180 deg rotation - cryst. axis [2,1,0]       

 cryst.   s(10) = (     1          1          0      )
                  (     0         -1          0      )
                  (     0          0         -1      )

 cart.    s(10) = (  0.5000000  0.8660254  0.0000000 )
                  (  0.8660254 -0.5000000  0.0000000 )
                  (  0.0000000  0.0000000 -1.0000000 )


      isym = 11     180 deg rotation - cryst. axis [0,1,0]       

 cryst.   s(11) = (    -1         -1          0      )
                  (     0          1          0      )
                  (     0          0         -1      )

 cart.    s(11) = ( -0.5000000 -0.8660254  0.0000000 )
                  ( -0.8660254  0.5000000  0.0000000 )
                  (  0.0000000  0.0000000 -1.0000000 )


      isym = 12     180 deg rotation - cryst. axis [1,1,0]       

 cryst.   s(12) = (     0          1          0      )
                  (     1          0          0      )
                  (     0          0         -1      )

 cart.    s(12) = ( -0.5000000  0.8660254  0.0000000 )
                  (  0.8660254  0.5000000  0.0000000 )
                  (  0.0000000  0.0000000 -1.0000000 )


      isym = 13     inversion                                    

 cryst.   s(13) = (    -1          0          0      )
                  (     0         -1          0      )
                  (     0          0         -1      )

 cart.    s(13) = ( -1.0000000  0.0000000  0.0000000 )
                  (  0.0000000 -1.0000000  0.0000000 )
                  (  0.0000000  0.0000000 -1.0000000 )


      isym = 14     inv. 180 deg rotation - cart. axis [0,0,1]   

 cryst.   s(14) = (     1          0          0      )
                  (     0          1          0      )
                  (     0          0         -1      )

 cart.    s(14) = (  1.0000000  0.0000000  0.0000000 )
                  (  0.0000000  1.0000000  0.0000000 )
                  (  0.0000000  0.0000000 -1.0000000 )


      isym = 15     inv. 180 deg rotation - cart. axis [0,1,0]   

 cryst.   s(15) = (     1          0          0      )
                  (    -1         -1          0      )
                  (     0          0          1      )

 cart.    s(15) = (  1.0000000  0.0000000  0.0000000 )
                  (  0.0000000 -1.0000000  0.0000000 )
                  (  0.0000000  0.0000000  1.0000000 )


      isym = 16     inv. 180 deg rotation - cart. axis [1,0,0]   

 cryst.   s(16) = (    -1          0          0      )
                  (     1          1          0      )
                  (     0          0          1      )

 cart.    s(16) = ( -1.0000000  0.0000000  0.0000000 )
                  (  0.0000000  1.0000000  0.0000000 )
                  (  0.0000000  0.0000000  1.0000000 )


      isym = 17     inv.  60 deg rotation - cryst. axis [0,0,1]  

 cryst.   s(17) = (    -1         -1          0      )
                  (     1          0          0      )
                  (     0          0         -1      )

 cart.    s(17) = ( -0.5000000  0.8660254  0.0000000 )
                  ( -0.8660254 -0.5000000  0.0000000 )
                  (  0.0000000  0.0000000 -1.0000000 )


      isym = 18     inv.  60 deg rotation - cryst. axis [0,0,-1] 

 cryst.   s(18) = (     0          1          0      )
                  (    -1         -1          0      )
                  (     0          0         -1      )

 cart.    s(18) = ( -0.5000000 -0.8660254  0.0000000 )
                  (  0.8660254 -0.5000000  0.0000000 )
                  (  0.0000000  0.0000000 -1.0000000 )


      isym = 19     inv. 120 deg rotation - cryst. axis [0,0,1]  

 cryst.   s(19) = (     0         -1          0      )
                  (     1          1          0      )
                  (     0          0         -1      )

 cart.    s(19) = (  0.5000000  0.8660254  0.0000000 )
                  ( -0.8660254  0.5000000  0.0000000 )
                  (  0.0000000  0.0000000 -1.0000000 )


      isym = 20     inv. 120 deg rotation - cryst. axis [0,0,-1] 

 cryst.   s(20) = (     1          1          0      )
                  (    -1          0          0      )
                  (     0          0         -1      )

 cart.    s(20) = (  0.5000000 -0.8660254  0.0000000 )
                  (  0.8660254  0.5000000  0.0000000 )
                  (  0.0000000  0.0000000 -1.0000000 )


      isym = 21     inv. 180 deg rotation - cryst. axis [1,-1,0] 

 cryst.   s(21) = (     0          1          0      )
                  (     1          0          0      )
                  (     0          0          1      )

 cart.    s(21) = ( -0.5000000  0.8660254  0.0000000 )
                  (  0.8660254  0.5000000  0.0000000 )
                  (  0.0000000  0.0000000  1.0000000 )


      isym = 22     inv. 180 deg rotation - cryst. axis [2,1,0]  

 cryst.   s(22) = (    -1         -1          0      )
                  (     0          1          0      )
                  (     0          0          1      )

 cart.    s(22) = ( -0.5000000 -0.8660254  0.0000000 )
                  ( -0.8660254  0.5000000  0.0000000 )
                  (  0.0000000  0.0000000  1.0000000 )


      isym = 23     inv. 180 deg rotation - cryst. axis [0,1,0]  

 cryst.   s(23) = (     1          1          0      )
                  (     0         -1          0      )
                  (     0          0          1      )

 cart.    s(23) = (  0.5000000  0.8660254  0.0000000 )
                  (  0.8660254 -0.5000000  0.0000000 )
                  (  0.0000000  0.0000000  1.0000000 )


      isym = 24     inv. 180 deg rotation - cryst. axis [1,1,0]  

 cryst.   s(24) = (     0         -1          0      )
                  (    -1          0          0      )
                  (     0          0          1      )

 cart.    s(24) = (  0.5000000 -0.8660254  0.0000000 )
                  ( -0.8660254 -0.5000000  0.0000000 )
                  (  0.0000000  0.0000000  1.0000000 )


     point group D_6h(6/mmm)
     there are 12 classes
     the character table:

       E     2C6   2C3   C2    3C2'  3C2'' i     2S3   2S6   s_h   3s_d  3s_v 
A_1g   1.00  1.00  1.00  1.00  1.00  1.00  1.00  1.00  1.00  1.00  1.00  1.00
A_2g   1.00  1.00  1.00  1.00 -1.00 -1.00  1.00  1.00  1.00  1.00 -1.00 -1.00
B_1g   1.00 -1.00  1.00 -1.00  1.00 -1.00  1.00 -1.00  1.00 -1.00  1.00 -1.00
B_2g   1.00 -1.00  1.00 -1.00 -1.00  1.00  1.00 -1.00  1.00 -1.00 -1.00  1.00
E_1g   2.00  1.00 -1.00 -2.00  0.00  0.00  2.00  1.00 -1.00 -2.00  0.00  0.00
E_2g   2.00 -1.00 -1.00  2.00  0.00  0.00  2.00 -1.00 -1.00  2.00  0.00  0.00
A_1u   1.00  1.00  1.00  1.00  1.00  1.00 -1.00 -1.00 -1.00 -1.00 -1.00 -1.00
A_2u   1.00  1.00  1.00  1.00 -1.00 -1.00 -1.00 -1.00 -1.00 -1.00  1.00  1.00
B_1u   1.00 -1.00  1.00 -1.00  1.00 -1.00 -1.00  1.00 -1.00  1.00 -1.00  1.00
B_2u   1.00 -1.00  1.00 -1.00 -1.00  1.00 -1.00  1.00 -1.00  1.00  1.00 -1.00
E_1u   2.00  1.00 -1.00 -2.00  0.00  0.00 -2.00 -1.00  1.00  2.00  0.00  0.00
E_2u   2.00 -1.00 -1.00  2.00  0.00  0.00 -2.00  1.00  1.00 -2.00  0.00  0.00

     the symmetry operations in each class and the name of the first element:

     E        1
          identity                                               
     2C6      5    6
           60 deg rotation - cryst. axis [0,0,1]                 
     2C3      7    8
          120 deg rotation - cryst. axis [0,0,1]                 
     C2       2
          180 deg rotation - cart. axis [0,0,1]                  
     3C2'     4   12   11
          180 deg rotation - cart. axis [1,0,0]                  
     3C2''    3    9   10
          180 deg rotation - cart. axis [0,1,0]                  
     i       13
          inversion                                              
     2S3     17   18
          inv.  60 deg rotation - cryst. axis [0,0,1]            
     2S6     19   20
          inv. 120 deg rotation - cryst. axis [0,0,1]            
     s_h     14
          inv. 180 deg rotation - cart. axis [0,0,1]             
     3s_d    16   24   23
          inv. 180 deg rotation - cart. axis [1,0,0]             
     3s_v    15   21   22
          inv. 180 deg rotation - cart. axis [0,1,0]             

   Cartesian axes

     site n.     atom                  positions (alat units)
         1        C      tau(   1) = (   0.0000000   0.0000000   0.0000000  )

   Crystallographic axes

     site n.     atom                  positions (cryst. coord.)
         1        C      tau(   1) = (  0.0000000  0.0000000  0.0000000  )

     number of k points=    28  Gaussian smearing, width (Ry)=  0.0050
                       cart. coord. in units 2pi/alat
        k(    1) = (   0.0000000   0.0000000   0.0000000), wk =   0.0092593
        k(    2) = (   0.0000000   0.0000000   0.0833333), wk =   0.0185185
        k(    3) = (   0.0000000   0.0000000   0.1666667), wk =   0.0185185
        k(    4) = (   0.0000000   0.0000000  -0.2500000), wk =   0.0092593
        k(    5) = (   0.0000000   0.1924501   0.0000000), wk =   0.0555556
        k(    6) = (   0.0000000   0.1924501   0.0833333), wk =   0.1111111
        k(    7) = (   0.0000000   0.1924501   0.1666667), wk =   0.1111111
        k(    8) = (   0.0000000   0.1924501  -0.2500000), wk =   0.0555556
        k(    9) = (   0.0000000   0.3849002   0.0000000), wk =   0.0555556
        k(   10) = (   0.0000000   0.3849002   0.0833333), wk =   0.1111111
        k(   11) = (   0.0000000   0.3849002   0.1666667), wk =   0.1111111
        k(   12) = (   0.0000000   0.3849002  -0.2500000), wk =   0.0555556
        k(   13) = (   0.0000000  -0.5773503   0.0000000), wk =   0.0277778
        k(   14) = (   0.0000000  -0.5773503   0.0833333), wk =   0.0555556
        k(   15) = (   0.0000000  -0.5773503   0.1666667), wk =   0.0555556
        k(   16) = (   0.0000000  -0.5773503  -0.2500000), wk =   0.0277778
        k(   17) = (   0.1666667   0.2886751   0.0000000), wk =   0.0555556
        k(   18) = (   0.1666667   0.2886751   0.0833333), wk =   0.1111111
        k(   19) = (   0.1666667   0.2886751   0.1666667), wk =   0.1111111
        k(   20) = (   0.1666667   0.2886751  -0.2500000), wk =   0.0555556
        k(   21) = (   0.1666667   0.4811252   0.0000000), wk =   0.1111111
        k(   22) = (   0.1666667   0.4811252   0.0833333), wk =   0.2222222
        k(   23) = (   0.1666667   0.4811252   0.1666667), wk =   0.2222222
        k(   24) = (   0.1666667   0.4811252  -0.2500000), wk =   0.1111111
        k(   25) = (   0.3333333   0.5773503   0.0000000), wk =   0.0185185
        k(   26) = (   0.3333333   0.5773503   0.0833333), wk =   0.0370370
        k(   27) = (   0.3333333   0.5773503   0.1666667), wk =   0.0370370
        k(   28) = (   0.3333333   0.5773503  -0.2500000), wk =   0.0185185

                       cryst. coord.
        k(    1) = (   0.0000000   0.0000000   0.0000000), wk =   0.0092593
        k(    2) = (   0.0000000   0.0000000   0.1666667), wk =   0.0185185
        k(    3) = (   0.0000000   0.0000000   0.3333333), wk =   0.0185185
        k(    4) = (   0.0000000   0.0000000  -0.5000000), wk =   0.0092593
        k(    5) = (   0.0000000   0.1666667   0.0000000), wk =   0.0555556
        k(    6) = (   0.0000000   0.1666667   0.1666667), wk =   0.1111111
        k(    7) = (   0.0000000   0.1666667   0.3333333), wk =   0.1111111
        k(    8) = (   0.0000000   0.1666667  -0.5000000), wk =   0.0555556
        k(    9) = (   0.0000000   0.3333333   0.0000000), wk =   0.0555556
        k(   10) = (   0.0000000   0.3333333   0.1666667), wk =   0.1111111
        k(   11) = (   0.0000000   0.3333333   0.3333333), wk =   0.1111111
        k(   12) = (   0.0000000   0.3333333  -0.5000000), wk =   0.0555556
        k(   13) = (   0.0000000  -0.5000000   0.0000000), wk =   0.0277778
        k(   14) = (   0.0000000  -0.5000000   0.1666667), wk =   0.0555556
        k(   15) = (   0.0000000  -0.5000000   0.3333333), wk =   0.0555556
        k(   16) = (   0.0000000  -0.5000000  -0.5000000), wk =   0.0277778
        k(   17) = (   0.1666667   0.1666667   0.0000000), wk =   0.0555556
        k(   18) = (   0.1666667   0.1666667   0.1666667), wk =   0.1111111
        k(   19) = (   0.1666667   0.1666667   0.3333333), wk =   0.1111111
        k(   20) = (   0.1666667   0.1666667  -0.5000000), wk =   0.0555556
        k(   21) = (   0.1666667   0.3333333   0.0000000), wk =   0.1111111
        k(   22) = (   0.1666667   0.3333333   0.1666667), wk =   0.2222222
        k(   23) = (   0.1666667   0.3333333   0.3333333), wk =   0.2222222
        k(   24) = (   0.1666667   0.3333333  -0.5000000), wk =   0.1111111
        k(   25) = (   0.3333333   0.3333333   0.0000000), wk =   0.0185185
        k(   26) = (   0.3333333   0.3333333   0.1666667), wk =   0.0370370
        k(   27) = (   0.3333333   0.3333333   0.3333333), wk =   0.0370370
        k(   28) = (   0.3333333   0.3333333  -0.5000000), wk =   0.0185185

     Dense  grid:   140063 G-vectors     FFT dimensions: (  54,  54, 108)

     Dynamical RAM for                 wfc:       1.60 MB

     Dynamical RAM for     wfc (w. buffer):      46.52 MB

     Dynamical RAM for           str. fact:       2.14 MB

     Dynamical RAM for           local pot:       0.00 MB

     Dynamical RAM for          nlocal pot:       2.14 MB

     Dynamical RAM for                qrad:       0.41 MB

     Dynamical RAM for          rho,v,vnew:      13.62 MB

     Dynamical RAM for               rhoin:       4.54 MB

     Dynamical RAM for            rho*nmix:      34.20 MB

     Dynamical RAM for           G-vectors:       9.08 MB

     Dynamical RAM for          h,s,v(r/c):       0.01 MB

     Dynamical RAM for          <psi|beta>:       0.00 MB

     Dynamical RAM for                 psi:       3.21 MB

     Dynamical RAM for                hpsi:       3.21 MB

     Dynamical RAM for      wfcinit/wfcrot:       3.21 MB

     Estimated static dynamical RAM per process >      94.74 MB

     Estimated max dynamical RAM per process >     135.35 MB

     Initial potential from superposition of free atoms

     starting charge       4.0000, renormalised to       4.0000

     negative rho (up, down):  1.810E-06 0.000E+00
     Starting wfcs are    4 randomized atomic wfcs +    2 random wfcs

     total cpu time spent up to now is        3.5 secs

     Self-consistent Calculation

     iteration #  1     ecut=    80.00 Ry     beta= 0.70
     Davidson diagonalization with overlap

---- Real-time Memory Report at c_bands before calling an iterative solver
           268 MiB given to the printing process from OS
             0 MiB allocation reported by mallinfo(arena+hblkhd)
        122269 MiB available memory on the node where the printing process lives
------------------
     ethr =  1.00E-02,  avg # of iterations =  7.1

     Threshold (ethr) on eigenvalues was too large:
     Diagonalizing with lowered threshold

     Davidson diagonalization with overlap

---- Real-time Memory Report at c_bands before calling an iterative solver
           279 MiB given to the printing process from OS
             0 MiB allocation reported by mallinfo(arena+hblkhd)
        122294 MiB available memory on the node where the printing process lives
------------------
     ethr =  1.18E-04,  avg # of iterations =  6.1

     total cpu time spent up to now is       17.4 secs

     total energy              =     -10.74021365 Ry
     estimated scf accuracy    <       0.00475641 Ry

     iteration #  2     ecut=    80.00 Ry     beta= 0.70
     Davidson diagonalization with overlap

---- Real-time Memory Report at c_bands before calling an iterative solver
           320 MiB given to the printing process from OS
             0 MiB allocation reported by mallinfo(arena+hblkhd)
        122263 MiB available memory on the node where the printing process lives
------------------
     ethr =  1.19E-04,  avg # of iterations =  1.0

     total cpu time spent up to now is       21.6 secs

     total energy              =     -10.74055439 Ry
     estimated scf accuracy    <       0.00895407 Ry

     iteration #  3     ecut=    80.00 Ry     beta= 0.70
     Davidson diagonalization with overlap

---- Real-time Memory Report at c_bands before calling an iterative solver
           320 MiB given to the printing process from OS
             0 MiB allocation reported by mallinfo(arena+hblkhd)
        122264 MiB available memory on the node where the printing process lives
------------------
     ethr =  1.19E-04,  avg # of iterations =  1.0

     total cpu time spent up to now is       25.8 secs

     total energy              =     -10.74098415 Ry
     estimated scf accuracy    <       0.00005424 Ry

     iteration #  4     ecut=    80.00 Ry     beta= 0.70
     Davidson diagonalization with overlap

---- Real-time Memory Report at c_bands before calling an iterative solver
           320 MiB given to the printing process from OS
             0 MiB allocation reported by mallinfo(arena+hblkhd)
        122276 MiB available memory on the node where the printing process lives
------------------
     c_bands:  1 eigenvalues not converged
     ethr =  1.36E-06,  avg # of iterations =  6.9

     total cpu time spent up to now is       32.3 secs

     total energy              =     -10.74098975 Ry
     estimated scf accuracy    <       0.00000225 Ry

     iteration #  5     ecut=    80.00 Ry     beta= 0.70
     Davidson diagonalization with overlap

---- Real-time Memory Report at c_bands before calling an iterative solver
           327 MiB given to the printing process from OS
             0 MiB allocation reported by mallinfo(arena+hblkhd)
        122299 MiB available memory on the node where the printing process lives
------------------
     ethr =  5.62E-08,  avg # of iterations =  1.7

     total cpu time spent up to now is       36.9 secs

     total energy              =     -10.74099009 Ry
     estimated scf accuracy    <       0.00000040 Ry

     iteration #  6     ecut=    80.00 Ry     beta= 0.70
     Davidson diagonalization with overlap

---- Real-time Memory Report at c_bands before calling an iterative solver
           335 MiB given to the printing process from OS
             0 MiB allocation reported by mallinfo(arena+hblkhd)
        122289 MiB available memory on the node where the printing process lives
------------------
     ethr =  1.01E-08,  avg # of iterations =  1.0

     total cpu time spent up to now is       41.1 secs

     total energy              =     -10.74099009 Ry
     estimated scf accuracy    <       0.00000005 Ry

     iteration #  7     ecut=    80.00 Ry     beta= 0.70
     Davidson diagonalization with overlap

---- Real-time Memory Report at c_bands before calling an iterative solver
           336 MiB given to the printing process from OS
             0 MiB allocation reported by mallinfo(arena+hblkhd)
        122290 MiB available memory on the node where the printing process lives
------------------
     ethr =  1.25E-09,  avg # of iterations =  2.0

     total cpu time spent up to now is       46.1 secs

     total energy              =     -10.74099010 Ry
     estimated scf accuracy    <       0.00000002 Ry

     iteration #  8     ecut=    80.00 Ry     beta= 0.70
     Davidson diagonalization with overlap

---- Real-time Memory Report at c_bands before calling an iterative solver
           337 MiB given to the printing process from OS
             0 MiB allocation reported by mallinfo(arena+hblkhd)
        122290 MiB available memory on the node where the printing process lives
------------------
     ethr =  4.78E-10,  avg # of iterations =  1.0

     total cpu time spent up to now is       50.4 secs

     End of self-consistent calculation

          k = 0.0000 0.0000 0.0000 ( 17591 PWs)   bands (ev):

   -13.4078  -4.9708  -4.7332  -4.7332  -0.3931   1.0956

     occupation numbers 
     1.0000   0.7140   0.0000   0.0000   0.0000   0.0000

          k = 0.0000 0.0000 0.0833 ( 17591 PWs)   bands (ev):

   -13.4078  -4.9710  -4.7332  -4.7332  -0.3527   0.7801

     occupation numbers 
     1.0000   0.7154   0.0000   0.0000   0.0000   0.0000

          k = 0.0000 0.0000 0.1667 ( 17526 PWs)   bands (ev):

   -13.4078  -4.9714  -4.7332  -4.7332  -0.2438   0.4394

     occupation numbers 
     1.0000   0.7181   0.0000   0.0000   0.0000   0.0000

          k = 0.0000 0.0000-0.2500 ( 17598 PWs)   bands (ev):

   -13.4078  -4.9716  -4.7332  -4.7332  -0.1547   0.2714

     occupation numbers 
     1.0000   0.7195   0.0000   0.0000   0.0000   0.0000

          k = 0.0000 0.1925 0.0000 ( 17513 PWs)   bands (ev):

   -13.3983  -4.9525  -4.8245  -4.7506  -0.1282   1.2683

     occupation numbers 
     1.0000   0.5737   0.0066   0.0000   0.0000   0.0000

          k = 0.0000 0.1925 0.0833 ( 17521 PWs)   bands (ev):

   -13.3983  -4.9527  -4.8245  -4.7506  -0.0873   0.9841

     occupation numbers 
     1.0000   0.5750   0.0066   0.0000   0.0000   0.0000

          k = 0.0000 0.1925 0.1667 ( 17550 PWs)   bands (ev):

   -13.3983  -4.9530  -4.8245  -4.7506   0.0257   0.6484

     occupation numbers 
     1.0000   0.5776   0.0066   0.0000   0.0000   0.0000

          k = 0.0000 0.1925-0.2500 ( 17548 PWs)   bands (ev):

   -13.3983  -4.9532  -4.8245  -4.7506   0.1257   0.4716

     occupation numbers 
     1.0000   0.5789   0.0066   0.0000   0.0000   0.0000

          k = 0.0000 0.3849 0.0000 ( 17509 PWs)   bands (ev):

   -13.3790  -4.9930  -4.9157  -4.7849   0.5965   1.7921

     occupation numbers 
     1.0000   0.8476   0.2811   0.0005   0.0000   0.0000

          k = 0.0000 0.3849 0.0833 ( 17516 PWs)   bands (ev):

   -13.3790  -4.9930  -4.9158  -4.7849   0.6364   1.5740

     occupation numbers 
     1.0000   0.8475   0.2817   0.0005   0.0000   0.0000

          k = 0.0000 0.3849 0.1667 ( 17519 PWs)   bands (ev):

   -13.3790  -4.9929  -4.9160  -4.7849   0.7511   1.2654

     occupation numbers 
     1.0000   0.8474   0.2830   0.0005   0.0000   0.0000

          k = 0.0000 0.3849-0.2500 ( 17520 PWs)   bands (ev):

   -13.3790  -4.9929  -4.9161  -4.7849   0.8723   1.0749

     occupation numbers 
     1.0000   0.8473   0.2836   0.0005   0.0000   0.0000

          k = 0.0000-0.5774 0.0000 ( 17446 PWs)   bands (ev):

   -13.3693  -5.0714  -4.8971  -4.8019   1.6385   1.7196

     occupation numbers 
     1.0000   0.9960   0.1671   0.0016   0.0000   0.0000

          k = 0.0000-0.5774 0.0833 ( 17506 PWs)   bands (ev):

   -13.3693  -5.0714  -4.8972  -4.8019   1.6806   1.7467

     occupation numbers 
     1.0000   0.9960   0.1674   0.0016   0.0000   0.0000

          k = 0.0000-0.5774 0.1667 ( 17500 PWs)   bands (ev):

   -13.3693  -5.0713  -4.8973  -4.8019   1.7976   1.8287

     occupation numbers 
     1.0000   0.9960   0.1680   0.0016   0.0000   0.0000

          k = 0.0000-0.5774-0.2500 ( 17512 PWs)   bands (ev):

   -13.3693  -5.0713  -4.8974  -4.8019   1.9086   1.9691

     occupation numbers 
     1.0000   0.9960   0.1683   0.0016   0.0000   0.0000

          k = 0.1667 0.2887 0.0000 ( 17527 PWs)   bands (ev):

   -13.3839  -4.9359  -4.9250  -4.7942   0.3655   1.6186

     occupation numbers 
     1.0000   0.4361   0.3495   0.0009   0.0000   0.0000

          k = 0.1667 0.2887 0.0833 ( 17550 PWs)   bands (ev):

   -13.3839  -4.9359  -4.9251  -4.7942   0.4061   1.3818

     occupation numbers 
     1.0000   0.4360   0.3503   0.0009   0.0000   0.0000

          k = 0.1667 0.2887 0.1667 ( 17514 PWs)   bands (ev):

   -13.3839  -4.9358  -4.9253  -4.7942   0.5216   1.0627

     occupation numbers 
     1.0000   0.4357   0.3520   0.0009   0.0000   0.0000

          k = 0.1667 0.2887-0.2500 ( 17520 PWs)   bands (ev):

   -13.3839  -4.9358  -4.9254  -4.7942   0.6386   0.8739

     occupation numbers 
     1.0000   0.4356   0.3528   0.0009   0.0000   0.0000

          k = 0.1667 0.4811 0.0000 ( 17519 PWs)   bands (ev):

   -13.3693  -5.0282  -4.8973  -4.8495   1.2656   2.3209

     occupation numbers 
     1.0000   0.9607   0.1679   0.0252   0.0000   0.0000

          k = 0.1667 0.4811 0.0833 ( 17510 PWs)   bands (ev):

   -13.3693  -5.0282  -4.8974  -4.8495   1.3031   2.1441

     occupation numbers 
     1.0000   0.9607   0.1682   0.0252   0.0000   0.0000

          k = 0.1667 0.4811 0.1667 ( 17504 PWs)   bands (ev):

   -13.3693  -5.0282  -4.8975  -4.8495   1.4120   1.8678

     occupation numbers 
     1.0000   0.9607   0.1688   0.0252   0.0000   0.0000

          k = 0.1667 0.4811-0.2500 ( 17514 PWs)   bands (ev):

   -13.3693  -5.0282  -4.8975  -4.8495   1.5366   1.6816

     occupation numbers 
     1.0000   0.9606   0.1691   0.0252   0.0000   0.0000

          k = 0.3333 0.5774 0.0000 ( 17472 PWs)   bands (ev):

   -13.3645  -4.9647  -4.9647  -4.8882   2.1907   2.1909

     occupation numbers 
     1.0000   0.6694   0.6694   0.1245   0.0000   0.0000

          k = 0.3333 0.5774 0.0833 ( 17514 PWs)   bands (ev):

   -13.3645  -4.9647  -4.9647  -4.8882   2.2183   2.2184

     occupation numbers 
     1.0000   0.6694   0.6694   0.1247   0.0000   0.0000

          k = 0.3333 0.5774 0.1667 ( 17508 PWs)   bands (ev):

   -13.3645  -4.9647  -4.9647  -4.8883   2.2943   2.2945

     occupation numbers 
     1.0000   0.6692   0.6692   0.1251   0.0000   0.0000

          k = 0.3333 0.5774-0.2500 ( 17496 PWs)   bands (ev):

   -13.3645  -4.9647  -4.9647  -4.8883   2.3590   2.3593

     occupation numbers 
     1.0000   0.6692   0.6692   0.1253   0.0000   0.0000

     the Fermi energy is    -4.9436 ev

!    total energy              =     -10.74099010 Ry
     estimated scf accuracy    <          1.6E-09 Ry
     smearing contrib. (-TS)   =      -0.00358868 Ry
     internal energy E=F+TS    =     -10.73740142 Ry

     The total energy is F=E-TS. E is the sum of the following terms:
     one-electron contribution =     -10.69353776 Ry
     hartree contribution      =       5.80727405 Ry
     xc contribution           =      -2.80382136 Ry
     ewald contribution        =      -3.04731634 Ry

     convergence has been achieved in   8 iterations

     Writing all to output data dir sweeps/HEX_4/HEX_03.save/ :
     XML data file, charge density, pseudopotentials, collected wavefunctions
 
     init_run     :    228.91s CPU      3.50s WALL (       1 calls)
     electrons    :   4260.69s CPU     46.90s WALL (       1 calls)

     Called by init_run:
     wfcinit      :    213.12s CPU      3.05s WALL (       1 calls)
     wfcinit:atom :      3.86s CPU      0.06s WALL (      28 calls)
     wfcinit:wfcr :    196.52s CPU      2.81s WALL (      28 calls)
     potinit      :     12.08s CPU      0.21s WALL (       1 calls)
     hinit0       :      3.58s CPU      0.09s WALL (       1 calls)

     Called by electrons:
     c_bands      :   3447.62s CPU     37.93s WALL (       9 calls)
     sum_band     :    733.18s CPU      8.07s WALL (       9 calls)
     v_of_rho     :     56.75s CPU      0.70s WALL (       9 calls)
     v_h          :      6.31s CPU      0.08s WALL (       9 calls)
     v_xc         :     50.42s CPU      0.61s WALL (       9 calls)
     mix_rho      :     26.56s CPU      0.30s WALL (       9 calls)

     Called by c_bands:
     init_us_2    :     85.86s CPU      0.98s WALL (     532 calls)
     cegterg      :   3387.35s CPU     37.27s WALL (     252 calls)

     Called by sum_band:
     sum_band:wei :      0.64s CPU      0.01s WALL (       9 calls)
     sum_band:loo :    708.97s CPU      7.81s WALL (       9 calls)
     sum_band:buf :      9.22s CPU      0.09s WALL (     252 calls)
     sum_band:ini :     37.56s CPU      0.41s WALL (     252 calls)

     Called by *egterg:
     cdiaghg      :      7.77s CPU      0.09s WALL (    1002 calls)
     cegterg:over :     64.35s CPU      0.71s WALL (     778 calls)
     cegterg:upda :     42.05s CPU      0.46s WALL (     778 calls)
     cegterg:last :     35.79s CPU      0.39s WALL (     465 calls)
     h_psi        :   3382.30s CPU     37.81s WALL (    1058 calls)
     g_psi        :      1.52s CPU      0.05s WALL (     778 calls)

     Called by h_psi:
     h_psi:calbec :     52.14s CPU      0.57s WALL (    1058 calls)
     vloc_psi     :   3273.98s CPU     36.65s WALL (    1058 calls)
     add_vuspsi   :     32.72s CPU      0.36s WALL (    1058 calls)

     General routines
     calbec       :     49.49s CPU      0.55s WALL (    1058 calls)
     fft          :     26.41s CPU      0.31s WALL (      90 calls)
     ffts         :      2.89s CPU      0.03s WALL (       9 calls)
     fftw         :   3532.49s CPU     38.85s WALL (    9626 calls)
 
     Parallel routines
 
     PWSCF        :      1h15m CPU     50.61s WALL

 
   This run was terminated on:  11:41:38  17Jun2025            

=------------------------------------------------------------------------------=
   JOB DONE.
=------------------------------------------------------------------------------=
